s 1.000000000 _1_ AGT  --- 0 tcp 40 [0 0 0 0] ------- [1:0 0:0 32 0] [0 0] 0 0
r 1.000000000 _1_ RTR  --- 0 tcp 40 [0 0 0 0] ------- [1:0 0:0 32 0] [0 0] 0 0
s 1.000000000 _2_ AGT  --- 1 tcp 40 [0 0 0 0] ------- [2:0 0:0 32 0] [0 0] 0 0
r 1.000000000 _2_ RTR  --- 1 tcp 40 [0 0 0 0] ------- [2:0 0:0 32 0] [0 0] 0 0
s 1.000000000 _1_ RTR  --- 0 AODV 48 [0 0 0 0] ------- [1:255 -1:255 30 0] [0x2 1 1 [0 0] [1 4]] (REQUEST)
s 1.000000000 _2_ RTR  --- 0 AODV 48 [0 0 0 0] ------- [2:255 -1:255 30 0] [0x2 1 1 [0 0] [2 4]] (REQUEST)
r 1.001248017 _1_ RTR  --- 0 AODV 48 [0 ffffffff 2 800] ------- [2:255 -1:255 30 0] [0x2 1 1 [0 0] [2 4]] (REQUEST)
r 1.001248050 _0_ RTR  --- 0 AODV 48 [0 ffffffff 2 800] ------- [2:255 -1:255 30 0] [0x2 1 1 [0 0] [2 4]] (REQUEST)
s 1.001248050 _0_ RTR  --- 0 AODV 44 [0 0 0 0] ------- [0:255 2:255 30 2] [0x4 1 [0 4] 10.000000] (REPLY)
r 1.003154133 _2_ RTR  --- 0 AODV 48 [0 ffffffff 1 800] ------- [1:255 -1:255 30 0] [0x2 1 1 [0 0] [1 4]] (REQUEST)
r 1.003154183 _0_ RTR  --- 0 AODV 48 [0 ffffffff 1 800] ------- [1:255 -1:255 30 0] [0x2 1 1 [0 0] [1 4]] (REQUEST)
s 1.003154183 _0_ RTR  --- 0 AODV 44 [0 0 0 0] ------- [0:255 1:255 30 1] [0x4 1 [0 6] 10.000000] (REPLY)
s 1.009239571 _1_ RTR  --- 0 AODV 48 [0 ffffffff 2 800] ------- [1:255 -1:255 29 0] [0x2 2 1 [0 0] [2 4]] (REQUEST)
r 1.009270700 _2_ RTR  --- 0 AODV 44 [13a 2 0 800] ------- [0:255 2:255 30 2] [0x4 1 [0 4] 10.000000] (REPLY)
s 1.009270700 _2_ RTR  --- 1 tcp 40 [0 0 0 0] ------- [2:0 0:0 30 0] [0 0] 0 0
s 1.009542785 _2_ RTR  --- 0 AODV 48 [0 ffffffff 1 800] ------- [2:255 -1:255 29 0] [0x2 2 1 [0 0] [1 4]] (REQUEST)
r 1.011254850 _0_ AGT  --- 1 tcp 40 [13a 0 2 800] ------- [2:0 0:0 30 0] [0 0] 1 0
s 1.011254850 _0_ AGT  --- 2 ack 40 [0 0 0 0] ------- [0:0 2:0 32 0] [0 0] 0 0
r 1.011254850 _0_ RTR  --- 2 ack 40 [0 0 0 0] ------- [0:0 2:0 32 0] [0 0] 0 0
s 1.011254850 _0_ RTR  --- 2 ack 40 [0 0 0 0] ------- [0:0 2:0 30 2] [0 0] 0 0
r 1.013331050 _1_ RTR  --- 0 AODV 44 [13a 1 0 800] ------- [0:255 1:255 30 1] [0x4 1 [0 6] 10.000000] (REPLY)
s 1.013331050 _1_ RTR  --- 0 tcp 40 [0 0 0 0] ------- [1:0 0:0 30 0] [0 0] 0 0
r 1.014583083 _1_ RTR  --- 0 AODV 48 [0 ffffffff 2 800] ------- [2:255 -1:255 29 0] [0x2 2 1 [0 0] [1 4]] (REQUEST)
r 1.014583117 _0_ RTR  --- 0 AODV 48 [0 ffffffff 2 800] ------- [2:255 -1:255 29 0] [0x2 2 1 [0 0] [1 4]] (REQUEST)
r 1.016233267 _2_ AGT  --- 2 ack 40 [13a 2 0 800] ------- [0:0 2:0 30 2] [0 0] 1 0
s 1.016233267 _2_ AGT  --- 3 tcp 1040 [0 0 0 0] ------- [2:0 0:0 32 0] [1 0] 0 0
r 1.016233267 _2_ RTR  --- 3 tcp 1040 [0 0 0 0] ------- [2:0 0:0 32 0] [1 0] 0 0
s 1.016233267 _2_ AGT  --- 4 tcp 1040 [0 0 0 0] ------- [2:0 0:0 32 0] [2 0] 0 0
r 1.016233267 _2_ RTR  --- 4 tcp 1040 [0 0 0 0] ------- [2:0 0:0 32 0] [2 0] 0 0
s 1.016233267 _2_ RTR  --- 3 tcp 1040 [0 0 0 0] ------- [2:0 0:0 30 0] [1 0] 0 0
s 1.016233267 _2_ RTR  --- 4 tcp 1040 [0 0 0 0] ------- [2:0 0:0 30 0] [2 0] 0 0
r 1.017465300 _2_ RTR  --- 0 AODV 48 [0 ffffffff 1 800] ------- [1:255 -1:255 29 0] [0x2 2 1 [0 0] [2 4]] (REQUEST)
r 1.017465350 _0_ RTR  --- 0 AODV 48 [0 ffffffff 1 800] ------- [1:255 -1:255 29 0] [0x2 2 1 [0 0] [2 4]] (REQUEST)
r 1.029001450 _0_ AGT  --- 3 tcp 1040 [13a 0 2 800] ------- [2:0 0:0 30 0] [1 0] 1 0
s 1.029001450 _0_ AGT  --- 5 ack 40 [0 0 0 0] ------- [0:0 2:0 32 0] [1 0] 0 0
r 1.029001450 _0_ RTR  --- 5 ack 40 [0 0 0 0] ------- [0:0 2:0 32 0] [1 0] 0 0
s 1.029001450 _0_ RTR  --- 5 ack 40 [0 0 0 0] ------- [0:0 2:0 30 2] [1 0] 0 0
r 1.030845600 _2_ AGT  --- 5 ack 40 [13a 2 0 800] ------- [0:0 2:0 30 2] [1 0] 1 0
s 1.030845600 _2_ AGT  --- 6 tcp 1040 [0 0 0 0] ------- [2:0 0:0 32 0] [3 0] 0 0
r 1.030845600 _2_ RTR  --- 6 tcp 1040 [0 0 0 0] ------- [2:0 0:0 32 0] [3 0] 0 0
s 1.030845600 _2_ AGT  --- 7 tcp 1040 [0 0 0 0] ------- [2:0 0:0 32 0] [4 0] 0 0
r 1.030845600 _2_ RTR  --- 7 tcp 1040 [0 0 0 0] ------- [2:0 0:0 32 0] [4 0] 0 0
s 1.030845600 _2_ RTR  --- 6 tcp 1040 [0 0 0 0] ------- [2:0 0:0 30 0] [3 0] 0 0
s 1.030845600 _2_ RTR  --- 7 tcp 1040 [0 0 0 0] ------- [2:0 0:0 30 0] [4 0] 0 0
r 1.040909750 _0_ AGT  --- 4 tcp 1040 [13a 0 2 800] ------- [2:0 0:0 30 0] [2 0] 1 0
s 1.040909750 _0_ AGT  --- 8 ack 40 [0 0 0 0] ------- [0:0 2:0 32 0] [2 0] 0 0
r 1.040909750 _0_ RTR  --- 8 ack 40 [0 0 0 0] ------- [0:0 2:0 32 0] [2 0] 0 0
s 1.040909750 _0_ RTR  --- 8 ack 40 [0 0 0 0] ------- [0:0 2:0 30 2] [2 0] 0 0
r 1.042834017 _0_ AGT  --- 0 tcp 40 [13a 0 1 800] ------- [1:0 0:0 30 0] [0 0] 1 0
s 1.042834017 _0_ AGT  --- 9 ack 40 [0 0 0 0] ------- [0:0 2:0 32 0] [2 0] 0 0
r 1.042834017 _0_ RTR  --- 9 ack 40 [0 0 0 0] ------- [0:0 2:0 32 0] [2 0] 0 0
s 1.042834017 _0_ RTR  --- 9 ack 40 [0 0 0 0] ------- [0:0 2:0 30 2] [2 0] 0 0
r 1.052738217 _0_ AGT  --- 6 tcp 1040 [13a 0 2 800] ------- [2:0 0:0 30 0] [3 0] 1 0
s 1.052738217 _0_ AGT  --- 10 ack 40 [0 0 0 0] ------- [0:0 2:0 32 0] [3 0] 0 0
r 1.052738217 _0_ RTR  --- 10 ack 40 [0 0 0 0] ------- [0:0 2:0 32 0] [3 0] 0 0
s 1.052738217 _0_ RTR  --- 10 ack 40 [0 0 0 0] ------- [0:0 2:0 30 2] [3 0] 0 0
r 1.054602367 _2_ AGT  --- 8 ack 40 [13a 2 0 800] ------- [0:0 2:0 30 2] [2 0] 1 0
s 1.054602367 _2_ AGT  --- 11 tcp 1040 [0 0 0 0] ------- [2:0 0:0 32 0] [5 0] 0 0
r 1.054602367 _2_ RTR  --- 11 tcp 1040 [0 0 0 0] ------- [2:0 0:0 32 0] [5 0] 0 0
s 1.054602367 _2_ AGT  --- 12 tcp 1040 [0 0 0 0] ------- [2:0 0:0 32 0] [6 0] 0 0
r 1.054602367 _2_ RTR  --- 12 tcp 1040 [0 0 0 0] ------- [2:0 0:0 32 0] [6 0] 0 0
s 1.054602367 _2_ RTR  --- 11 tcp 1040 [0 0 0 0] ------- [2:0 0:0 30 0] [5 0] 0 0
s 1.054602367 _2_ RTR  --- 12 tcp 1040 [0 0 0 0] ------- [2:0 0:0 30 0] [6 0] 0 0
r 1.064806517 _0_ AGT  --- 7 tcp 1040 [13a 0 2 800] ------- [2:0 0:0 30 0] [4 0] 1 0
s 1.064806517 _0_ AGT  --- 13 ack 40 [0 0 0 0] ------- [0:0 2:0 32 0] [4 0] 0 0
r 1.064806517 _0_ RTR  --- 13 ack 40 [0 0 0 0] ------- [0:0 2:0 32 0] [4 0] 0 0
s 1.064806517 _0_ RTR  --- 13 ack 40 [0 0 0 0] ------- [0:0 2:0 30 2] [4 0] 0 0
r 1.066810667 _2_ AGT  --- 9 ack 40 [13a 2 0 800] ------- [0:0 2:0 30 2] [2 0] 1 0
s 1.066810667 _2_ AGT  --- 14 tcp 1040 [0 0 0 0] ------- [2:0 0:0 32 0] [7 0] 0 0
r 1.066810667 _2_ RTR  --- 14 tcp 1040 [0 0 0 0] ------- [2:0 0:0 32 0] [7 0] 0 0
s 1.066810667 _2_ RTR  --- 14 tcp 1040 [0 0 0 0] ------- [2:0 0:0 30 0] [7 0] 0 0
r 1.068674867 _2_ AGT  --- 10 ack 40 [13a 2 0 800] ------- [0:0 2:0 30 2] [3 0] 1 0
s 1.068674867 _2_ AGT  --- 15 tcp 1040 [0 0 0 0] ------- [2:0 0:0 32 0] [8 0] 0 0
r 1.068674867 _2_ RTR  --- 15 tcp 1040 [0 0 0 0] ------- [2:0 0:0 32 0] [8 0] 0 0
s 1.068674867 _2_ RTR  --- 15 tcp 1040 [0 0 0 0] ------- [2:0 0:0 30 0] [8 0] 0 0
r 1.078659017 _0_ AGT  --- 11 tcp 1040 [13a 0 2 800] ------- [2:0 0:0 30 0] [5 0] 1 0
s 1.078659017 _0_ AGT  --- 16 ack 40 [0 0 0 0] ------- [0:0 2:0 32 0] [5 0] 0 0
r 1.078659017 _0_ RTR  --- 16 ack 40 [0 0 0 0] ------- [0:0 2:0 32 0] [5 0] 0 0
s 1.078659017 _0_ RTR  --- 16 ack 40 [0 0 0 0] ------- [0:0 2:0 30 2] [5 0] 0 0
r 1.080643167 _2_ AGT  --- 13 ack 40 [13a 2 0 800] ------- [0:0 2:0 30 2] [4 0] 1 0
s 1.080643167 _2_ AGT  --- 17 tcp 1040 [0 0 0 0] ------- [2:0 0:0 32 0] [9 0] 0 0
r 1.080643167 _2_ RTR  --- 17 tcp 1040 [0 0 0 0] ------- [2:0 0:0 32 0] [9 0] 0 0
s 1.080643167 _2_ AGT  --- 18 tcp 1040 [0 0 0 0] ------- [2:0 0:0 32 0] [10 0] 0 0
r 1.080643167 _2_ RTR  --- 18 tcp 1040 [0 0 0 0] ------- [2:0 0:0 32 0] [10 0] 0 0
s 1.080643167 _2_ RTR  --- 17 tcp 1040 [0 0 0 0] ------- [2:0 0:0 30 0] [9 0] 0 0
s 1.080643167 _2_ RTR  --- 18 tcp 1040 [0 0 0 0] ------- [2:0 0:0 30 0] [10 0] 0 0
r 1.082607367 _2_ AGT  --- 16 ack 40 [13a 2 0 800] ------- [0:0 2:0 30 2] [5 0] 1 0
s 1.082607367 _2_ AGT  --- 19 tcp 1040 [0 0 0 0] ------- [2:0 0:0 32 0] [11 0] 0 0
r 1.082607367 _2_ RTR  --- 19 tcp 1040 [0 0 0 0] ------- [2:0 0:0 32 0] [11 0] 0 0
s 1.082607367 _2_ AGT  --- 20 tcp 1040 [0 0 0 0] ------- [2:0 0:0 32 0] [12 0] 0 0
r 1.082607367 _2_ RTR  --- 20 tcp 1040 [0 0 0 0] ------- [2:0 0:0 32 0] [12 0] 0 0
s 1.082607367 _2_ RTR  --- 19 tcp 1040 [0 0 0 0] ------- [2:0 0:0 30 0] [11 0] 0 0
s 1.082607367 _2_ RTR  --- 20 tcp 1040 [0 0 0 0] ------- [2:0 0:0 30 0] [12 0] 0 0
r 1.092511517 _0_ AGT  --- 12 tcp 1040 [13a 0 2 800] ------- [2:0 0:0 30 0] [6 0] 1 0
s 1.092511517 _0_ AGT  --- 21 ack 40 [0 0 0 0] ------- [0:0 2:0 32 0] [6 0] 0 0
r 1.092511517 _0_ RTR  --- 21 ack 40 [0 0 0 0] ------- [0:0 2:0 32 0] [6 0] 0 0
s 1.092511517 _0_ RTR  --- 21 ack 40 [0 0 0 0] ------- [0:0 2:0 30 2] [6 0] 0 0
r 1.102535717 _0_ AGT  --- 14 tcp 1040 [13a 0 2 800] ------- [2:0 0:0 30 0] [7 0] 1 0
s 1.102535717 _0_ AGT  --- 22 ack 40 [0 0 0 0] ------- [0:0 2:0 32 0] [7 0] 0 0
r 1.102535717 _0_ RTR  --- 22 ack 40 [0 0 0 0] ------- [0:0 2:0 32 0] [7 0] 0 0
s 1.102535717 _0_ RTR  --- 22 ack 40 [0 0 0 0] ------- [0:0 2:0 30 2] [7 0] 0 0
r 1.104439867 _2_ AGT  --- 21 ack 40 [13a 2 0 800] ------- [0:0 2:0 30 2] [6 0] 1 0
s 1.104439867 _2_ AGT  --- 23 tcp 1040 [0 0 0 0] ------- [2:0 0:0 32 0] [13 0] 0 0
r 1.104439867 _2_ RTR  --- 23 tcp 1040 [0 0 0 0] ------- [2:0 0:0 32 0] [13 0] 0 0
s 1.104439867 _2_ AGT  --- 24 tcp 1040 [0 0 0 0] ------- [2:0 0:0 32 0] [14 0] 0 0
r 1.104439867 _2_ RTR  --- 24 tcp 1040 [0 0 0 0] ------- [2:0 0:0 32 0] [14 0] 0 0
s 1.104439867 _2_ RTR  --- 23 tcp 1040 [0 0 0 0] ------- [2:0 0:0 30 0] [13 0] 0 0
s 1.104439867 _2_ RTR  --- 24 tcp 1040 [0 0 0 0] ------- [2:0 0:0 30 0] [14 0] 0 0
r 1.114304017 _0_ AGT  --- 15 tcp 1040 [13a 0 2 800] ------- [2:0 0:0 30 0] [8 0] 1 0
s 1.114304017 _0_ AGT  --- 25 ack 40 [0 0 0 0] ------- [0:0 2:0 32 0] [8 0] 0 0
r 1.114304017 _0_ RTR  --- 25 ack 40 [0 0 0 0] ------- [0:0 2:0 32 0] [8 0] 0 0
s 1.114304017 _0_ RTR  --- 25 ack 40 [0 0 0 0] ------- [0:0 2:0 30 2] [8 0] 0 0
r 1.124348217 _0_ AGT  --- 17 tcp 1040 [13a 0 2 800] ------- [2:0 0:0 30 0] [9 0] 1 0
s 1.124348217 _0_ AGT  --- 26 ack 40 [0 0 0 0] ------- [0:0 2:0 32 0] [9 0] 0 0
r 1.124348217 _0_ RTR  --- 26 ack 40 [0 0 0 0] ------- [0:0 2:0 32 0] [9 0] 0 0
s 1.124348217 _0_ RTR  --- 26 ack 40 [0 0 0 0] ------- [0:0 2:0 30 2] [9 0] 0 0
r 1.134372417 _0_ AGT  --- 18 tcp 1040 [13a 0 2 800] ------- [2:0 0:0 30 0] [10 0] 1 0
s 1.134372417 _0_ AGT  --- 27 ack 40 [0 0 0 0] ------- [0:0 2:0 32 0] [10 0] 0 0
r 1.134372417 _0_ RTR  --- 27 ack 40 [0 0 0 0] ------- [0:0 2:0 32 0] [10 0] 0 0
s 1.134372417 _0_ RTR  --- 27 ack 40 [0 0 0 0] ------- [0:0 2:0 30 2] [10 0] 0 0
r 1.136276567 _2_ AGT  --- 22 ack 40 [13a 2 0 800] ------- [0:0 2:0 30 2] [7 0] 1 0
s 1.136276567 _2_ AGT  --- 28 tcp 1040 [0 0 0 0] ------- [2:0 0:0 32 0] [15 0] 0 0
r 1.136276567 _2_ RTR  --- 28 tcp 1040 [0 0 0 0] ------- [2:0 0:0 32 0] [15 0] 0 0
s 1.136276567 _2_ AGT  --- 29 tcp 1040 [0 0 0 0] ------- [2:0 0:0 32 0] [16 0] 0 0
r 1.136276567 _2_ RTR  --- 29 tcp 1040 [0 0 0 0] ------- [2:0 0:0 32 0] [16 0] 0 0
s 1.136276567 _2_ RTR  --- 28 tcp 1040 [0 0 0 0] ------- [2:0 0:0 30 0] [15 0] 0 0
s 1.136276567 _2_ RTR  --- 29 tcp 1040 [0 0 0 0] ------- [2:0 0:0 30 0] [16 0] 0 0
r 1.138160767 _2_ AGT  --- 25 ack 40 [13a 2 0 800] ------- [0:0 2:0 30 2] [8 0] 1 0
s 1.138160767 _2_ AGT  --- 30 tcp 1040 [0 0 0 0] ------- [2:0 0:0 32 0] [17 0] 0 0
r 1.138160767 _2_ RTR  --- 30 tcp 1040 [0 0 0 0] ------- [2:0 0:0 32 0] [17 0] 0 0
s 1.138160767 _2_ AGT  --- 31 tcp 1040 [0 0 0 0] ------- [2:0 0:0 32 0] [18 0] 0 0
r 1.138160767 _2_ RTR  --- 31 tcp 1040 [0 0 0 0] ------- [2:0 0:0 32 0] [18 0] 0 0
s 1.138160767 _2_ RTR  --- 30 tcp 1040 [0 0 0 0] ------- [2:0 0:0 30 0] [17 0] 0 0
s 1.138160767 _2_ RTR  --- 31 tcp 1040 [0 0 0 0] ------- [2:0 0:0 30 0] [18 0] 0 0
r 1.140104967 _2_ AGT  --- 26 ack 40 [13a 2 0 800] ------- [0:0 2:0 30 2] [9 0] 1 0
s 1.140104967 _2_ AGT  --- 32 tcp 1040 [0 0 0 0] ------- [2:0 0:0 32 0] [19 0] 0 0
r 1.140104967 _2_ RTR  --- 32 tcp 1040 [0 0 0 0] ------- [2:0 0:0 32 0] [19 0] 0 0
s 1.140104967 _2_ AGT  --- 33 tcp 1040 [0 0 0 0] ------- [2:0 0:0 32 0] [20 0] 0 0
r 1.140104967 _2_ RTR  --- 33 tcp 1040 [0 0 0 0] ------- [2:0 0:0 32 0] [20 0] 0 0
s 1.140104967 _2_ RTR  --- 32 tcp 1040 [0 0 0 0] ------- [2:0 0:0 30 0] [19 0] 0 0
s 1.140104967 _2_ RTR  --- 33 tcp 1040 [0 0 0 0] ------- [2:0 0:0 30 0] [20 0] 0 0
r 1.143075167 _2_ AGT  --- 27 ack 40 [13a 2 0 800] ------- [0:0 2:0 30 2] [10 0] 1 0
s 1.143075167 _2_ AGT  --- 34 tcp 1040 [0 0 0 0] ------- [2:0 0:0 32 0] [21 0] 0 0
r 1.143075167 _2_ RTR  --- 34 tcp 1040 [0 0 0 0] ------- [2:0 0:0 32 0] [21 0] 0 0
s 1.143075167 _2_ AGT  --- 35 tcp 1040 [0 0 0 0] ------- [2:0 0:0 32 0] [22 0] 0 0
r 1.143075167 _2_ RTR  --- 35 tcp 1040 [0 0 0 0] ------- [2:0 0:0 32 0] [22 0] 0 0
s 1.143075167 _2_ RTR  --- 34 tcp 1040 [0 0 0 0] ------- [2:0 0:0 30 0] [21 0] 0 0
s 1.143075167 _2_ RTR  --- 35 tcp 1040 [0 0 0 0] ------- [2:0 0:0 30 0] [22 0] 0 0
r 1.153559317 _0_ AGT  --- 19 tcp 1040 [13a 0 2 800] ------- [2:0 0:0 30 0] [11 0] 1 0
s 1.153559317 _0_ AGT  --- 36 ack 40 [0 0 0 0] ------- [0:0 2:0 32 0] [11 0] 0 0
r 1.153559317 _0_ RTR  --- 36 ack 40 [0 0 0 0] ------- [0:0 2:0 32 0] [11 0] 0 0
s 1.153559317 _0_ RTR  --- 36 ack 40 [0 0 0 0] ------- [0:0 2:0 30 2] [11 0] 0 0
r 1.155663467 _2_ AGT  --- 36 ack 40 [13a 2 0 800] ------- [0:0 2:0 30 2] [11 0] 1 0
s 1.155663467 _2_ AGT  --- 37 tcp 1040 [0 0 0 0] ------- [2:0 0:0 32 0] [23 0] 0 0
r 1.155663467 _2_ RTR  --- 37 tcp 1040 [0 0 0 0] ------- [2:0 0:0 32 0] [23 0] 0 0
s 1.155663467 _2_ AGT  --- 38 tcp 1040 [0 0 0 0] ------- [2:0 0:0 32 0] [24 0] 0 0
r 1.155663467 _2_ RTR  --- 38 tcp 1040 [0 0 0 0] ------- [2:0 0:0 32 0] [24 0] 0 0
s 1.155663467 _2_ RTR  --- 37 tcp 1040 [0 0 0 0] ------- [2:0 0:0 30 0] [23 0] 0 0
s 1.155663467 _2_ RTR  --- 38 tcp 1040 [0 0 0 0] ------- [2:0 0:0 30 0] [24 0] 0 0
r 1.165707617 _0_ AGT  --- 20 tcp 1040 [13a 0 2 800] ------- [2:0 0:0 30 0] [12 0] 1 0
s 1.165707617 _0_ AGT  --- 39 ack 40 [0 0 0 0] ------- [0:0 2:0 32 0] [12 0] 0 0
r 1.165707617 _0_ RTR  --- 39 ack 40 [0 0 0 0] ------- [0:0 2:0 32 0] [12 0] 0 0
s 1.165707617 _0_ RTR  --- 39 ack 40 [0 0 0 0] ------- [0:0 2:0 30 2] [12 0] 0 0
r 1.167751767 _2_ AGT  --- 39 ack 40 [13a 2 0 800] ------- [0:0 2:0 30 2] [12 0] 1 0
s 1.167751767 _2_ AGT  --- 40 tcp 1040 [0 0 0 0] ------- [2:0 0:0 32 0] [25 0] 0 0
r 1.167751767 _2_ RTR  --- 40 tcp 1040 [0 0 0 0] ------- [2:0 0:0 32 0] [25 0] 0 0
s 1.167751767 _2_ AGT  --- 41 tcp 1040 [0 0 0 0] ------- [2:0 0:0 32 0] [26 0] 0 0
r 1.167751767 _2_ RTR  --- 41 tcp 1040 [0 0 0 0] ------- [2:0 0:0 32 0] [26 0] 0 0
s 1.167751767 _2_ RTR  --- 40 tcp 1040 [0 0 0 0] ------- [2:0 0:0 30 0] [25 0] 0 0
s 1.167751767 _2_ RTR  --- 41 tcp 1040 [0 0 0 0] ------- [2:0 0:0 30 0] [26 0] 0 0
r 1.177695917 _0_ AGT  --- 23 tcp 1040 [13a 0 2 800] ------- [2:0 0:0 30 0] [13 0] 1 0
s 1.177695917 _0_ AGT  --- 42 ack 40 [0 0 0 0] ------- [0:0 2:0 32 0] [13 0] 0 0
r 1.177695917 _0_ RTR  --- 42 ack 40 [0 0 0 0] ------- [0:0 2:0 32 0] [13 0] 0 0
s 1.177695917 _0_ RTR  --- 42 ack 40 [0 0 0 0] ------- [0:0 2:0 30 2] [13 0] 0 0
r 1.179580067 _2_ AGT  --- 42 ack 40 [13a 2 0 800] ------- [0:0 2:0 30 2] [13 0] 1 0
s 1.179580067 _2_ AGT  --- 43 tcp 1040 [0 0 0 0] ------- [2:0 0:0 32 0] [27 0] 0 0
r 1.179580067 _2_ RTR  --- 43 tcp 1040 [0 0 0 0] ------- [2:0 0:0 32 0] [27 0] 0 0
s 1.179580067 _2_ AGT  --- 44 tcp 1040 [0 0 0 0] ------- [2:0 0:0 32 0] [28 0] 0 0
r 1.179580067 _2_ RTR  --- 44 tcp 1040 [0 0 0 0] ------- [2:0 0:0 32 0] [28 0] 0 0
s 1.179580067 _2_ RTR  --- 43 tcp 1040 [0 0 0 0] ------- [2:0 0:0 30 0] [27 0] 0 0
s 1.179580067 _2_ RTR  --- 44 tcp 1040 [0 0 0 0] ------- [2:0 0:0 30 0] [28 0] 0 0
r 1.189584217 _0_ AGT  --- 24 tcp 1040 [13a 0 2 800] ------- [2:0 0:0 30 0] [14 0] 1 0
s 1.189584217 _0_ AGT  --- 45 ack 40 [0 0 0 0] ------- [0:0 2:0 32 0] [14 0] 0 0
r 1.189584217 _0_ RTR  --- 45 ack 40 [0 0 0 0] ------- [0:0 2:0 32 0] [14 0] 0 0
s 1.189584217 _0_ RTR  --- 45 ack 40 [0 0 0 0] ------- [0:0 2:0 30 2] [14 0] 0 0
r 1.199408417 _0_ AGT  --- 28 tcp 1040 [13a 0 2 800] ------- [2:0 0:0 30 0] [15 0] 1 0
s 1.199408417 _0_ AGT  --- 46 ack 40 [0 0 0 0] ------- [0:0 2:0 32 0] [15 0] 0 0
r 1.199408417 _0_ RTR  --- 46 ack 40 [0 0 0 0] ------- [0:0 2:0 32 0] [15 0] 0 0
s 1.199408417 _0_ RTR  --- 46 ack 40 [0 0 0 0] ------- [0:0 2:0 30 2] [15 0] 0 0
r 1.209472617 _0_ AGT  --- 29 tcp 1040 [13a 0 2 800] ------- [2:0 0:0 30 0] [16 0] 1 0
s 1.209472617 _0_ AGT  --- 47 ack 40 [0 0 0 0] ------- [0:0 2:0 32 0] [16 0] 0 0
r 1.209472617 _0_ RTR  --- 47 ack 40 [0 0 0 0] ------- [0:0 2:0 32 0] [16 0] 0 0
s 1.209472617 _0_ RTR  --- 47 ack 40 [0 0 0 0] ------- [0:0 2:0 30 2] [16 0] 0 0
r 1.211356767 _2_ AGT  --- 45 ack 40 [13a 2 0 800] ------- [0:0 2:0 30 2] [14 0] 1 0
s 1.211356767 _2_ AGT  --- 48 tcp 1040 [0 0 0 0] ------- [2:0 0:0 32 0] [29 0] 0 0
r 1.211356767 _2_ RTR  --- 48 tcp 1040 [0 0 0 0] ------- [2:0 0:0 32 0] [29 0] 0 0
s 1.211356767 _2_ AGT  --- 49 tcp 1040 [0 0 0 0] ------- [2:0 0:0 32 0] [30 0] 0 0
r 1.211356767 _2_ RTR  --- 49 tcp 1040 [0 0 0 0] ------- [2:0 0:0 32 0] [30 0] 0 0
s 1.211356767 _2_ RTR  --- 48 tcp 1040 [0 0 0 0] ------- [2:0 0:0 30 0] [29 0] 0 0
s 1.211356767 _2_ RTR  --- 49 tcp 1040 [0 0 0 0] ------- [2:0 0:0 30 0] [30 0] 0 0
r 1.221440917 _0_ AGT  --- 30 tcp 1040 [13a 0 2 800] ------- [2:0 0:0 30 0] [17 0] 1 0
s 1.221440917 _0_ AGT  --- 50 ack 40 [0 0 0 0] ------- [0:0 2:0 32 0] [17 0] 0 0
r 1.221440917 _0_ RTR  --- 50 ack 40 [0 0 0 0] ------- [0:0 2:0 32 0] [17 0] 0 0
s 1.221440917 _0_ RTR  --- 50 ack 40 [0 0 0 0] ------- [0:0 2:0 30 2] [17 0] 0 0
r 1.231285117 _0_ AGT  --- 31 tcp 1040 [13a 0 2 800] ------- [2:0 0:0 30 0] [18 0] 1 0
s 1.231285117 _0_ AGT  --- 51 ack 40 [0 0 0 0] ------- [0:0 2:0 32 0] [18 0] 0 0
r 1.231285117 _0_ RTR  --- 51 ack 40 [0 0 0 0] ------- [0:0 2:0 32 0] [18 0] 0 0
s 1.231285117 _0_ RTR  --- 51 ack 40 [0 0 0 0] ------- [0:0 2:0 30 2] [18 0] 0 0
r 1.233129267 _2_ AGT  --- 46 ack 40 [13a 2 0 800] ------- [0:0 2:0 30 2] [15 0] 1 0
s 1.233129267 _2_ AGT  --- 52 tcp 1040 [0 0 0 0] ------- [2:0 0:0 32 0] [31 0] 0 0
r 1.233129267 _2_ RTR  --- 52 tcp 1040 [0 0 0 0] ------- [2:0 0:0 32 0] [31 0] 0 0
s 1.233129267 _2_ AGT  --- 53 tcp 1040 [0 0 0 0] ------- [2:0 0:0 32 0] [32 0] 0 0
r 1.233129267 _2_ RTR  --- 53 tcp 1040 [0 0 0 0] ------- [2:0 0:0 32 0] [32 0] 0 0
s 1.233129267 _2_ RTR  --- 52 tcp 1040 [0 0 0 0] ------- [2:0 0:0 30 0] [31 0] 0 0
s 1.233129267 _2_ RTR  --- 53 tcp 1040 [0 0 0 0] ------- [2:0 0:0 30 0] [32 0] 0 0
r 1.235193467 _2_ AGT  --- 47 ack 40 [13a 2 0 800] ------- [0:0 2:0 30 2] [16 0] 1 0
s 1.235193467 _2_ AGT  --- 54 tcp 1040 [0 0 0 0] ------- [2:0 0:0 32 0] [33 0] 0 0
r 1.235193467 _2_ RTR  --- 54 tcp 1040 [0 0 0 0] ------- [2:0 0:0 32 0] [33 0] 0 0
s 1.235193467 _2_ AGT  --- 55 tcp 1040 [0 0 0 0] ------- [2:0 0:0 32 0] [34 0] 0 0
r 1.235193467 _2_ RTR  --- 55 tcp 1040 [0 0 0 0] ------- [2:0 0:0 32 0] [34 0] 0 0
s 1.235193467 _2_ RTR  --- 54 tcp 1040 [0 0 0 0] ------- [2:0 0:0 30 0] [33 0] 0 0
s 1.235193467 _2_ RTR  --- 55 tcp 1040 [0 0 0 0] ------- [2:0 0:0 30 0] [34 0] 0 0
r 1.237137667 _2_ AGT  --- 50 ack 40 [13a 2 0 800] ------- [0:0 2:0 30 2] [17 0] 1 0
s 1.237137667 _2_ AGT  --- 56 tcp 1040 [0 0 0 0] ------- [2:0 0:0 32 0] [35 0] 0 0
r 1.237137667 _2_ RTR  --- 56 tcp 1040 [0 0 0 0] ------- [2:0 0:0 32 0] [35 0] 0 0
s 1.237137667 _2_ AGT  --- 57 tcp 1040 [0 0 0 0] ------- [2:0 0:0 32 0] [36 0] 0 0
r 1.237137667 _2_ RTR  --- 57 tcp 1040 [0 0 0 0] ------- [2:0 0:0 32 0] [36 0] 0 0
s 1.237137667 _2_ RTR  --- 56 tcp 1040 [0 0 0 0] ------- [2:0 0:0 30 0] [35 0] 0 0
s 1.237137667 _2_ RTR  --- 57 tcp 1040 [0 0 0 0] ------- [2:0 0:0 30 0] [36 0] 0 0
r 1.247081817 _0_ AGT  --- 32 tcp 1040 [13a 0 2 800] ------- [2:0 0:0 30 0] [19 0] 1 0
s 1.247081817 _0_ AGT  --- 58 ack 40 [0 0 0 0] ------- [0:0 2:0 32 0] [19 0] 0 0
r 1.247081817 _0_ RTR  --- 58 ack 40 [0 0 0 0] ------- [0:0 2:0 32 0] [19 0] 0 0
s 1.247081817 _0_ RTR  --- 58 ack 40 [0 0 0 0] ------- [0:0 2:0 30 2] [19 0] 0 0
r 1.256946017 _0_ AGT  --- 33 tcp 1040 [13a 0 2 800] ------- [2:0 0:0 30 0] [20 0] 1 0
s 1.256946017 _0_ AGT  --- 59 ack 40 [0 0 0 0] ------- [0:0 2:0 32 0] [20 0] 0 0
r 1.256946017 _0_ RTR  --- 59 ack 40 [0 0 0 0] ------- [0:0 2:0 32 0] [20 0] 0 0
s 1.256946017 _0_ RTR  --- 59 ack 40 [0 0 0 0] ------- [0:0 2:0 30 2] [20 0] 0 0
r 1.258930167 _2_ AGT  --- 51 ack 40 [13a 2 0 800] ------- [0:0 2:0 30 2] [18 0] 1 0
s 1.258930167 _2_ AGT  --- 60 tcp 1040 [0 0 0 0] ------- [2:0 0:0 32 0] [37 0] 0 0
r 1.258930167 _2_ RTR  --- 60 tcp 1040 [0 0 0 0] ------- [2:0 0:0 32 0] [37 0] 0 0
s 1.258930167 _2_ AGT  --- 61 tcp 1040 [0 0 0 0] ------- [2:0 0:0 32 0] [38 0] 0 0
r 1.258930167 _2_ RTR  --- 61 tcp 1040 [0 0 0 0] ------- [2:0 0:0 32 0] [38 0] 0 0
s 1.258930167 _2_ RTR  --- 60 tcp 1040 [0 0 0 0] ------- [2:0 0:0 30 0] [37 0] 0 0
s 1.258930167 _2_ RTR  --- 61 tcp 1040 [0 0 0 0] ------- [2:0 0:0 30 0] [38 0] 0 0
r 1.260874367 _2_ AGT  --- 58 ack 40 [13a 2 0 800] ------- [0:0 2:0 30 2] [19 0] 1 0
s 1.260874367 _2_ AGT  --- 62 tcp 1040 [0 0 0 0] ------- [2:0 0:0 32 0] [39 0] 0 0
r 1.260874367 _2_ RTR  --- 62 tcp 1040 [0 0 0 0] ------- [2:0 0:0 32 0] [39 0] 0 0
s 1.260874367 _2_ RTR  --- 62 tcp 1040 [0 0 0 0] ------- [2:0 0:0 30 0] [39 0] 0 0
r 1.271784617 _0_ AGT  --- 34 tcp 1040 [13a 0 2 800] ------- [2:0 0:0 30 0] [21 0] 1 0
s 1.271784617 _0_ AGT  --- 63 ack 40 [0 0 0 0] ------- [0:0 2:0 32 0] [21 0] 0 0
r 1.271784617 _0_ RTR  --- 63 ack 40 [0 0 0 0] ------- [0:0 2:0 32 0] [21 0] 0 0
s 1.271784617 _0_ RTR  --- 63 ack 40 [0 0 0 0] ------- [0:0 2:0 30 2] [21 0] 0 0
r 1.281868817 _0_ AGT  --- 35 tcp 1040 [13a 0 2 800] ------- [2:0 0:0 30 0] [22 0] 1 0
s 1.281868817 _0_ AGT  --- 64 ack 40 [0 0 0 0] ------- [0:0 2:0 32 0] [22 0] 0 0
r 1.281868817 _0_ RTR  --- 64 ack 40 [0 0 0 0] ------- [0:0 2:0 32 0] [22 0] 0 0
s 1.281868817 _0_ RTR  --- 64 ack 40 [0 0 0 0] ------- [0:0 2:0 30 2] [22 0] 0 0
r 1.291893017 _0_ AGT  --- 37 tcp 1040 [13a 0 2 800] ------- [2:0 0:0 30 0] [23 0] 1 0
s 1.291893017 _0_ AGT  --- 65 ack 40 [0 0 0 0] ------- [0:0 2:0 32 0] [23 0] 0 0
r 1.291893017 _0_ RTR  --- 65 ack 40 [0 0 0 0] ------- [0:0 2:0 32 0] [23 0] 0 0
s 1.291893017 _0_ RTR  --- 65 ack 40 [0 0 0 0] ------- [0:0 2:0 30 2] [23 0] 0 0
r 1.301777217 _0_ AGT  --- 38 tcp 1040 [13a 0 2 800] ------- [2:0 0:0 30 0] [24 0] 1 0
s 1.301777217 _0_ AGT  --- 66 ack 40 [0 0 0 0] ------- [0:0 2:0 32 0] [24 0] 0 0
r 1.301777217 _0_ RTR  --- 66 ack 40 [0 0 0 0] ------- [0:0 2:0 32 0] [24 0] 0 0
s 1.301777217 _0_ RTR  --- 66 ack 40 [0 0 0 0] ------- [0:0 2:0 30 2] [24 0] 0 0
r 1.303681367 _2_ AGT  --- 59 ack 40 [13a 2 0 800] ------- [0:0 2:0 30 2] [20 0] 1 0
s 1.303681367 _2_ AGT  --- 67 tcp 1040 [0 0 0 0] ------- [2:0 0:0 32 0] [40 0] 0 0
r 1.303681367 _2_ RTR  --- 67 tcp 1040 [0 0 0 0] ------- [2:0 0:0 32 0] [40 0] 0 0
s 1.303681367 _2_ RTR  --- 67 tcp 1040 [0 0 0 0] ------- [2:0 0:0 30 0] [40 0] 0 0
r 1.313785517 _0_ AGT  --- 40 tcp 1040 [13a 0 2 800] ------- [2:0 0:0 30 0] [25 0] 1 0
s 1.313785517 _0_ AGT  --- 68 ack 40 [0 0 0 0] ------- [0:0 2:0 32 0] [25 0] 0 0
r 1.313785517 _0_ RTR  --- 68 ack 40 [0 0 0 0] ------- [0:0 2:0 32 0] [25 0] 0 0
s 1.313785517 _0_ RTR  --- 68 ack 40 [0 0 0 0] ------- [0:0 2:0 30 2] [25 0] 0 0
r 1.323729717 _0_ AGT  --- 41 tcp 1040 [13a 0 2 800] ------- [2:0 0:0 30 0] [26 0] 1 0
s 1.323729717 _0_ AGT  --- 69 ack 40 [0 0 0 0] ------- [0:0 2:0 32 0] [26 0] 0 0
r 1.323729717 _0_ RTR  --- 69 ack 40 [0 0 0 0] ------- [0:0 2:0 32 0] [26 0] 0 0
s 1.323729717 _0_ RTR  --- 69 ack 40 [0 0 0 0] ------- [0:0 2:0 30 2] [26 0] 0 0
r 1.333613917 _0_ AGT  --- 43 tcp 1040 [13a 0 2 800] ------- [2:0 0:0 30 0] [27 0] 1 0
s 1.333613917 _0_ AGT  --- 70 ack 40 [0 0 0 0] ------- [0:0 2:0 32 0] [27 0] 0 0
r 1.333613917 _0_ RTR  --- 70 ack 40 [0 0 0 0] ------- [0:0 2:0 32 0] [27 0] 0 0
s 1.333613917 _0_ RTR  --- 70 ack 40 [0 0 0 0] ------- [0:0 2:0 30 2] [27 0] 0 0
r 1.335598067 _2_ AGT  --- 63 ack 40 [13a 2 0 800] ------- [0:0 2:0 30 2] [21 0] 1 0
s 1.335598067 _2_ AGT  --- 71 tcp 1040 [0 0 0 0] ------- [2:0 0:0 32 0] [41 0] 0 0
r 1.335598067 _2_ RTR  --- 71 tcp 1040 [0 0 0 0] ------- [2:0 0:0 32 0] [41 0] 0 0
s 1.335598067 _2_ RTR  --- 71 tcp 1040 [0 0 0 0] ------- [2:0 0:0 30 0] [41 0] 0 0
r 1.337542267 _2_ AGT  --- 64 ack 40 [13a 2 0 800] ------- [0:0 2:0 30 2] [22 0] 1 0
s 1.337542267 _2_ AGT  --- 72 tcp 1040 [0 0 0 0] ------- [2:0 0:0 32 0] [42 0] 0 0
r 1.337542267 _2_ RTR  --- 72 tcp 1040 [0 0 0 0] ------- [2:0 0:0 32 0] [42 0] 0 0
s 1.337542267 _2_ RTR  --- 72 tcp 1040 [0 0 0 0] ------- [2:0 0:0 30 0] [42 0] 0 0
r 1.347686417 _0_ AGT  --- 44 tcp 1040 [13a 0 2 800] ------- [2:0 0:0 30 0] [28 0] 1 0
s 1.347686417 _0_ AGT  --- 73 ack 40 [0 0 0 0] ------- [0:0 2:0 32 0] [28 0] 0 0
r 1.347686417 _0_ RTR  --- 73 ack 40 [0 0 0 0] ------- [0:0 2:0 32 0] [28 0] 0 0
s 1.347686417 _0_ RTR  --- 73 ack 40 [0 0 0 0] ------- [0:0 2:0 30 2] [28 0] 0 0
r 1.349810567 _2_ AGT  --- 65 ack 40 [13a 2 0 800] ------- [0:0 2:0 30 2] [23 0] 1 0
s 1.349810567 _2_ AGT  --- 74 tcp 1040 [0 0 0 0] ------- [2:0 0:0 32 0] [43 0] 0 0
r 1.349810567 _2_ RTR  --- 74 tcp 1040 [0 0 0 0] ------- [2:0 0:0 32 0] [43 0] 0 0
s 1.349810567 _2_ RTR  --- 74 tcp 1040 [0 0 0 0] ------- [2:0 0:0 30 0] [43 0] 0 0
r 1.359794717 _0_ AGT  --- 48 tcp 1040 [13a 0 2 800] ------- [2:0 0:0 30 0] [29 0] 1 0
s 1.359794717 _0_ AGT  --- 75 ack 40 [0 0 0 0] ------- [0:0 2:0 32 0] [29 0] 0 0
r 1.359794717 _0_ RTR  --- 75 ack 40 [0 0 0 0] ------- [0:0 2:0 32 0] [29 0] 0 0
s 1.359794717 _0_ RTR  --- 75 ack 40 [0 0 0 0] ------- [0:0 2:0 30 2] [29 0] 0 0
r 1.369918917 _0_ AGT  --- 49 tcp 1040 [13a 0 2 800] ------- [2:0 0:0 30 0] [30 0] 1 0
s 1.369918917 _0_ AGT  --- 76 ack 40 [0 0 0 0] ------- [0:0 2:0 32 0] [30 0] 0 0
r 1.369918917 _0_ RTR  --- 76 ack 40 [0 0 0 0] ------- [0:0 2:0 32 0] [30 0] 0 0
s 1.369918917 _0_ RTR  --- 76 ack 40 [0 0 0 0] ------- [0:0 2:0 30 2] [30 0] 0 0
r 1.371843067 _2_ AGT  --- 66 ack 40 [13a 2 0 800] ------- [0:0 2:0 30 2] [24 0] 1 0
s 1.371843067 _2_ AGT  --- 77 tcp 1040 [0 0 0 0] ------- [2:0 0:0 32 0] [44 0] 0 0
r 1.371843067 _2_ RTR  --- 77 tcp 1040 [0 0 0 0] ------- [2:0 0:0 32 0] [44 0] 0 0
s 1.371843067 _2_ RTR  --- 77 tcp 1040 [0 0 0 0] ------- [2:0 0:0 30 0] [44 0] 0 0
r 1.381887217 _0_ AGT  --- 52 tcp 1040 [13a 0 2 800] ------- [2:0 0:0 30 0] [31 0] 1 0
s 1.381887217 _0_ AGT  --- 78 ack 40 [0 0 0 0] ------- [0:0 2:0 32 0] [31 0] 0 0
r 1.381887217 _0_ RTR  --- 78 ack 40 [0 0 0 0] ------- [0:0 2:0 32 0] [31 0] 0 0
s 1.381887217 _0_ RTR  --- 78 ack 40 [0 0 0 0] ------- [0:0 2:0 30 2] [31 0] 0 0
r 1.383811367 _2_ AGT  --- 68 ack 40 [13a 2 0 800] ------- [0:0 2:0 30 2] [25 0] 1 0
s 1.383811367 _2_ AGT  --- 79 tcp 1040 [0 0 0 0] ------- [2:0 0:0 32 0] [45 0] 0 0
r 1.383811367 _2_ RTR  --- 79 tcp 1040 [0 0 0 0] ------- [2:0 0:0 32 0] [45 0] 0 0
s 1.383811367 _2_ RTR  --- 79 tcp 1040 [0 0 0 0] ------- [2:0 0:0 30 0] [45 0] 0 0
r 1.385675567 _2_ AGT  --- 69 ack 40 [13a 2 0 800] ------- [0:0 2:0 30 2] [26 0] 1 0
s 1.385675567 _2_ AGT  --- 80 tcp 1040 [0 0 0 0] ------- [2:0 0:0 32 0] [46 0] 0 0
r 1.385675567 _2_ RTR  --- 80 tcp 1040 [0 0 0 0] ------- [2:0 0:0 32 0] [46 0] 0 0
s 1.385675567 _2_ RTR  --- 80 tcp 1040 [0 0 0 0] ------- [2:0 0:0 30 0] [46 0] 0 0
r 1.395719717 _0_ AGT  --- 53 tcp 1040 [13a 0 2 800] ------- [2:0 0:0 30 0] [32 0] 1 0
s 1.395719717 _0_ AGT  --- 81 ack 40 [0 0 0 0] ------- [0:0 2:0 32 0] [32 0] 0 0
r 1.395719717 _0_ RTR  --- 81 ack 40 [0 0 0 0] ------- [0:0 2:0 32 0] [32 0] 0 0
s 1.395719717 _0_ RTR  --- 81 ack 40 [0 0 0 0] ------- [0:0 2:0 30 2] [32 0] 0 0
r 1.405763917 _0_ AGT  --- 54 tcp 1040 [13a 0 2 800] ------- [2:0 0:0 30 0] [33 0] 1 0
s 1.405763917 _0_ AGT  --- 82 ack 40 [0 0 0 0] ------- [0:0 2:0 32 0] [33 0] 0 0
r 1.405763917 _0_ RTR  --- 82 ack 40 [0 0 0 0] ------- [0:0 2:0 32 0] [33 0] 0 0
s 1.405763917 _0_ RTR  --- 82 ack 40 [0 0 0 0] ------- [0:0 2:0 30 2] [33 0] 0 0
r 1.407748067 _2_ AGT  --- 70 ack 40 [13a 2 0 800] ------- [0:0 2:0 30 2] [27 0] 1 0
s 1.407748067 _2_ AGT  --- 83 tcp 1040 [0 0 0 0] ------- [2:0 0:0 32 0] [47 0] 0 0
r 1.407748067 _2_ RTR  --- 83 tcp 1040 [0 0 0 0] ------- [2:0 0:0 32 0] [47 0] 0 0
s 1.407748067 _2_ RTR  --- 83 tcp 1040 [0 0 0 0] ------- [2:0 0:0 30 0] [47 0] 0 0
r 1.417612217 _0_ AGT  --- 55 tcp 1040 [13a 0 2 800] ------- [2:0 0:0 30 0] [34 0] 1 0
s 1.417612217 _0_ AGT  --- 84 ack 40 [0 0 0 0] ------- [0:0 2:0 32 0] [34 0] 0 0
r 1.417612217 _0_ RTR  --- 84 ack 40 [0 0 0 0] ------- [0:0 2:0 32 0] [34 0] 0 0
s 1.417612217 _0_ RTR  --- 84 ack 40 [0 0 0 0] ------- [0:0 2:0 30 2] [34 0] 0 0
r 1.419576367 _2_ AGT  --- 73 ack 40 [13a 2 0 800] ------- [0:0 2:0 30 2] [28 0] 1 0
s 1.419576367 _2_ AGT  --- 85 tcp 1040 [0 0 0 0] ------- [2:0 0:0 32 0] [48 0] 0 0
r 1.419576367 _2_ RTR  --- 85 tcp 1040 [0 0 0 0] ------- [2:0 0:0 32 0] [48 0] 0 0
s 1.419576367 _2_ RTR  --- 85 tcp 1040 [0 0 0 0] ------- [2:0 0:0 30 0] [48 0] 0 0
r 1.429720517 _0_ AGT  --- 56 tcp 1040 [13a 0 2 800] ------- [2:0 0:0 30 0] [35 0] 1 0
s 1.429720517 _0_ AGT  --- 86 ack 40 [0 0 0 0] ------- [0:0 2:0 32 0] [35 0] 0 0
r 1.429720517 _0_ RTR  --- 86 ack 40 [0 0 0 0] ------- [0:0 2:0 32 0] [35 0] 0 0
s 1.429720517 _0_ RTR  --- 86 ack 40 [0 0 0 0] ------- [0:0 2:0 30 2] [35 0] 0 0
r 1.431644667 _2_ AGT  --- 75 ack 40 [13a 2 0 800] ------- [0:0 2:0 30 2] [29 0] 1 0
s 1.431644667 _2_ AGT  --- 87 tcp 1040 [0 0 0 0] ------- [2:0 0:0 32 0] [49 0] 0 0
r 1.431644667 _2_ RTR  --- 87 tcp 1040 [0 0 0 0] ------- [2:0 0:0 32 0] [49 0] 0 0
s 1.431644667 _2_ RTR  --- 87 tcp 1040 [0 0 0 0] ------- [2:0 0:0 30 0] [49 0] 0 0
r 1.441508817 _0_ AGT  --- 57 tcp 1040 [13a 0 2 800] ------- [2:0 0:0 30 0] [36 0] 1 0
s 1.441508817 _0_ AGT  --- 88 ack 40 [0 0 0 0] ------- [0:0 2:0 32 0] [36 0] 0 0
r 1.441508817 _0_ RTR  --- 88 ack 40 [0 0 0 0] ------- [0:0 2:0 32 0] [36 0] 0 0
s 1.441508817 _0_ RTR  --- 88 ack 40 [0 0 0 0] ------- [0:0 2:0 30 2] [36 0] 0 0
r 1.443472967 _2_ AGT  --- 76 ack 40 [13a 2 0 800] ------- [0:0 2:0 30 2] [30 0] 1 0
s 1.443472967 _2_ AGT  --- 89 tcp 1040 [0 0 0 0] ------- [2:0 0:0 32 0] [50 0] 0 0
r 1.443472967 _2_ RTR  --- 89 tcp 1040 [0 0 0 0] ------- [2:0 0:0 32 0] [50 0] 0 0
s 1.443472967 _2_ RTR  --- 89 tcp 1040 [0 0 0 0] ------- [2:0 0:0 30 0] [50 0] 0 0
r 1.445297167 _2_ AGT  --- 78 ack 40 [13a 2 0 800] ------- [0:0 2:0 30 2] [31 0] 1 0