V -t * -v 1.0a5 -a 0
W -t * -x 1000 -y 1000
A -t * -n 1 -p 0 -o 0x7fffffff -c 30 -a 1
A -t * -h 1 -m 1073741823 -s 0
+ -t 1.000000000 -s 1 -d -1 -p tcp -e 40 -c 2 -a 0 -i 0 -k AGT 
- -t 1.000000000 -s 1 -d -1 -p tcp -e 40 -c 2 -a 0 -i 0 -k AGT
h -t 1.000000000 -s 1 -d -1 -p tcp -e 40 -c 2 -a 0 -i 0 -k AGT
+ -t 1.000000000 -s 2 -d -1 -p tcp -e 40 -c 2 -a 0 -i 1 -k AGT 
- -t 1.000000000 -s 2 -d -1 -p tcp -e 40 -c 2 -a 0 -i 1 -k AGT
h -t 1.000000000 -s 2 -d -1 -p tcp -e 40 -c 2 -a 0 -i 1 -k AGT
+ -t 1.000000000 -s 1 -d -1 -p AODV -e 48 -c 2 -a 0 -i 0 -k RTR 
- -t 1.000000000 -s 1 -d -1 -p AODV -e 48 -c 2 -a 0 -i 0 -k RTR
h -t 1.000000000 -s 1 -d -1 -p AODV -e 48 -c 2 -a 0 -i 0 -k RTR
+ -t 1.000000000 -s 2 -d -1 -p AODV -e 48 -c 2 -a 0 -i 0 -k RTR 
- -t 1.000000000 -s 2 -d -1 -p AODV -e 48 -c 2 -a 0 -i 0 -k RTR
h -t 1.000000000 -s 2 -d -1 -p AODV -e 48 -c 2 -a 0 -i 0 -k RTR
r -t 1.001248017 -s 1 -d -1 -p AODV -e 48 -c 2 -a 0 -i 0 -k RTR
r -t 1.001248050 -s 0 -d -1 -p AODV -e 48 -c 2 -a 0 -i 0 -k RTR
+ -t 1.001248050 -s 0 -d 2 -p AODV -e 44 -c 2 -a 0 -i 0 -k RTR 
- -t 1.001248050 -s 0 -d 2 -p AODV -e 44 -c 2 -a 0 -i 0 -k RTR
h -t 1.001248050 -s 0 -d 2 -p AODV -e 44 -c 2 -a 0 -i 0 -k RTR
r -t 1.003154133 -s 2 -d -1 -p AODV -e 48 -c 2 -a 0 -i 0 -k RTR
r -t 1.003154183 -s 0 -d -1 -p AODV -e 48 -c 2 -a 0 -i 0 -k RTR
+ -t 1.003154183 -s 0 -d 1 -p AODV -e 44 -c 2 -a 0 -i 0 -k RTR 
- -t 1.003154183 -s 0 -d 1 -p AODV -e 44 -c 2 -a 0 -i 0 -k RTR
h -t 1.003154183 -s 0 -d 1 -p AODV -e 44 -c 2 -a 0 -i 0 -k RTR
+ -t 1.009239571 -s 1 -d -1 -p AODV -e 48 -c 2 -a 0 -i 0 -k RTR 
- -t 1.009239571 -s 1 -d -1 -p AODV -e 48 -c 2 -a 0 -i 0 -k RTR
h -t 1.009239571 -s 1 -d -1 -p AODV -e 48 -c 2 -a 0 -i 0 -k RTR
+ -t 1.009270700 -s 2 -d 0 -p tcp -e 40 -c 2 -a 0 -i 1 -k RTR 
- -t 1.009270700 -s 2 -d 0 -p tcp -e 40 -c 2 -a 0 -i 1 -k RTR
h -t 1.009270700 -s 2 -d 0 -p tcp -e 40 -c 2 -a 0 -i 1 -k RTR
+ -t 1.009542785 -s 2 -d -1 -p AODV -e 48 -c 2 -a 0 -i 0 -k RTR 
- -t 1.009542785 -s 2 -d -1 -p AODV -e 48 -c 2 -a 0 -i 0 -k RTR
h -t 1.009542785 -s 2 -d -1 -p AODV -e 48 -c 2 -a 0 -i 0 -k RTR
r -t 1.011254850 -s 0 -d 0 -p tcp -e 40 -c 2 -a 0 -i 1 -k AGT
+ -t 1.011254850 -s 0 -d -1 -p ack -e 40 -c 2 -a 0 -i 2 -k AGT 
- -t 1.011254850 -s 0 -d -1 -p ack -e 40 -c 2 -a 0 -i 2 -k AGT
h -t 1.011254850 -s 0 -d -1 -p ack -e 40 -c 2 -a 0 -i 2 -k AGT
+ -t 1.011254850 -s 0 -d 2 -p ack -e 40 -c 2 -a 0 -i 2 -k RTR 
- -t 1.011254850 -s 0 -d 2 -p ack -e 40 -c 2 -a 0 -i 2 -k RTR
h -t 1.011254850 -s 0 -d 2 -p ack -e 40 -c 2 -a 0 -i 2 -k RTR
+ -t 1.013331050 -s 1 -d 0 -p tcp -e 40 -c 2 -a 0 -i 0 -k RTR 
- -t 1.013331050 -s 1 -d 0 -p tcp -e 40 -c 2 -a 0 -i 0 -k RTR
h -t 1.013331050 -s 1 -d 0 -p tcp -e 40 -c 2 -a 0 -i 0 -k RTR
r -t 1.014583083 -s 1 -d -1 -p AODV -e 48 -c 2 -a 0 -i 0 -k RTR
r -t 1.014583117 -s 0 -d -1 -p AODV -e 48 -c 2 -a 0 -i 0 -k RTR
r -t 1.016233267 -s 2 -d 2 -p ack -e 40 -c 2 -a 0 -i 2 -k AGT
+ -t 1.016233267 -s 2 -d -1 -p tcp -e 1040 -c 2 -a 0 -i 3 -k AGT 
- -t 1.016233267 -s 2 -d -1 -p tcp -e 1040 -c 2 -a 0 -i 3 -k AGT
h -t 1.016233267 -s 2 -d -1 -p tcp -e 1040 -c 2 -a 0 -i 3 -k AGT
+ -t 1.016233267 -s 2 -d -1 -p tcp -e 1040 -c 2 -a 0 -i 4 -k AGT 
- -t 1.016233267 -s 2 -d -1 -p tcp -e 1040 -c 2 -a 0 -i 4 -k AGT
h -t 1.016233267 -s 2 -d -1 -p tcp -e 1040 -c 2 -a 0 -i 4 -k AGT
+ -t 1.016233267 -s 2 -d 0 -p tcp -e 1040 -c 2 -a 0 -i 3 -k RTR 
- -t 1.016233267 -s 2 -d 0 -p tcp -e 1040 -c 2 -a 0 -i 3 -k RTR
h -t 1.016233267 -s 2 -d 0 -p tcp -e 1040 -c 2 -a 0 -i 3 -k RTR
+ -t 1.016233267 -s 2 -d 0 -p tcp -e 1040 -c 2 -a 0 -i 4 -k RTR 
- -t 1.016233267 -s 2 -d 0 -p tcp -e 1040 -c 2 -a 0 -i 4 -k RTR
h -t 1.016233267 -s 2 -d 0 -p tcp -e 1040 -c 2 -a 0 -i 4 -k RTR
r -t 1.017465300 -s 2 -d -1 -p AODV -e 48 -c 2 -a 0 -i 0 -k RTR
r -t 1.017465350 -s 0 -d -1 -p AODV -e 48 -c 2 -a 0 -i 0 -k RTR
r -t 1.029001450 -s 0 -d 0 -p tcp -e 1040 -c 2 -a 0 -i 3 -k AGT
+ -t 1.029001450 -s 0 -d -1 -p ack -e 40 -c 2 -a 0 -i 5 -k AGT 
- -t 1.029001450 -s 0 -d -1 -p ack -e 40 -c 2 -a 0 -i 5 -k AGT
h -t 1.029001450 -s 0 -d -1 -p ack -e 40 -c 2 -a 0 -i 5 -k AGT
+ -t 1.029001450 -s 0 -d 2 -p ack -e 40 -c 2 -a 0 -i 5 -k RTR 
- -t 1.029001450 -s 0 -d 2 -p ack -e 40 -c 2 -a 0 -i 5 -k RTR
h -t 1.029001450 -s 0 -d 2 -p ack -e 40 -c 2 -a 0 -i 5 -k RTR
r -t 1.030845600 -s 2 -d 2 -p ack -e 40 -c 2 -a 0 -i 5 -k AGT
+ -t 1.030845600 -s 2 -d -1 -p tcp -e 1040 -c 2 -a 0 -i 6 -k AGT 
- -t 1.030845600 -s 2 -d -1 -p tcp -e 1040 -c 2 -a 0 -i 6 -k AGT
h -t 1.030845600 -s 2 -d -1 -p tcp -e 1040 -c 2 -a 0 -i 6 -k AGT
+ -t 1.030845600 -s 2 -d -1 -p tcp -e 1040 -c 2 -a 0 -i 7 -k AGT 
- -t 1.030845600 -s 2 -d -1 -p tcp -e 1040 -c 2 -a 0 -i 7 -k AGT
h -t 1.030845600 -s 2 -d -1 -p tcp -e 1040 -c 2 -a 0 -i 7 -k AGT
+ -t 1.030845600 -s 2 -d 0 -p tcp -e 1040 -c 2 -a 0 -i 6 -k RTR 
- -t 1.030845600 -s 2 -d 0 -p tcp -e 1040 -c 2 -a 0 -i 6 -k RTR
h -t 1.030845600 -s 2 -d 0 -p tcp -e 1040 -c 2 -a 0 -i 6 -k RTR
+ -t 1.030845600 -s 2 -d 0 -p tcp -e 1040 -c 2 -a 0 -i 7 -k RTR 
- -t 1.030845600 -s 2 -d 0 -p tcp -e 1040 -c 2 -a 0 -i 7 -k RTR
h -t 1.030845600 -s 2 -d 0 -p tcp -e 1040 -c 2 -a 0 -i 7 -k RTR
r -t 1.040909750 -s 0 -d 0 -p tcp -e 1040 -c 2 -a 0 -i 4 -k AGT
+ -t 1.040909750 -s 0 -d -1 -p ack -e 40 -c 2 -a 0 -i 8 -k AGT 
- -t 1.040909750 -s 0 -d -1 -p ack -e 40 -c 2 -a 0 -i 8 -k AGT
h -t 1.040909750 -s 0 -d -1 -p ack -e 40 -c 2 -a 0 -i 8 -k AGT
+ -t 1.040909750 -s 0 -d 2 -p ack -e 40 -c 2 -a 0 -i 8 -k RTR 
- -t 1.040909750 -s 0 -d 2 -p ack -e 40 -c 2 -a 0 -i 8 -k RTR
h -t 1.040909750 -s 0 -d 2 -p ack -e 40 -c 2 -a 0 -i 8 -k RTR
r -t 1.042834017 -s 0 -d 0 -p tcp -e 40 -c 2 -a 0 -i 0 -k AGT
+ -t 1.042834017 -s 0 -d -1 -p ack -e 40 -c 2 -a 0 -i 9 -k AGT 
- -t 1.042834017 -s 0 -d -1 -p ack -e 40 -c 2 -a 0 -i 9 -k AGT
h -t 1.042834017 -s 0 -d -1 -p ack -e 40 -c 2 -a 0 -i 9 -k AGT
+ -t 1.042834017 -s 0 -d 2 -p ack -e 40 -c 2 -a 0 -i 9 -k RTR 
- -t 1.042834017 -s 0 -d 2 -p ack -e 40 -c 2 -a 0 -i 9 -k RTR
h -t 1.042834017 -s 0 -d 2 -p ack -e 40 -c 2 -a 0 -i 9 -k RTR
r -t 1.052738217 -s 0 -d 0 -p tcp -e 1040 -c 2 -a 0 -i 6 -k AGT
+ -t 1.052738217 -s 0 -d -1 -p ack -e 40 -c 2 -a 0 -i 10 -k AGT 
- -t 1.052738217 -s 0 -d -1 -p ack -e 40 -c 2 -a 0 -i 10 -k AGT
h -t 1.052738217 -s 0 -d -1 -p ack -e 40 -c 2 -a 0 -i 10 -k AGT
+ -t 1.052738217 -s 0 -d 2 -p ack -e 40 -c 2 -a 0 -i 10 -k RTR 
- -t 1.052738217 -s 0 -d 2 -p ack -e 40 -c 2 -a 0 -i 10 -k RTR
h -t 1.052738217 -s 0 -d 2 -p ack -e 40 -c 2 -a 0 -i 10 -k RTR
r -t 1.054602367 -s 2 -d 2 -p ack -e 40 -c 2 -a 0 -i 8 -k AGT
+ -t 1.054602367 -s 2 -d -1 -p tcp -e 1040 -c 2 -a 0 -i 11 -k AGT 
- -t 1.054602367 -s 2 -d -1 -p tcp -e 1040 -c 2 -a 0 -i 11 -k AGT
h -t 1.054602367 -s 2 -d -1 -p tcp -e 1040 -c 2 -a 0 -i 11 -k AGT
+ -t 1.054602367 -s 2 -d -1 -p tcp -e 1040 -c 2 -a 0 -i 12 -k AGT 
- -t 1.054602367 -s 2 -d -1 -p tcp -e 1040 -c 2 -a 0 -i 12 -k AGT
h -t 1.054602367 -s 2 -d -1 -p tcp -e 1040 -c 2 -a 0 -i 12 -k AGT
+ -t 1.054602367 -s 2 -d 0 -p tcp -e 1040 -c 2 -a 0 -i 11 -k RTR 
- -t 1.054602367 -s 2 -d 0 -p tcp -e 1040 -c 2 -a 0 -i 11 -k RTR
h -t 1.054602367 -s 2 -d 0 -p tcp -e 1040 -c 2 -a 0 -i 11 -k RTR
+ -t 1.054602367 -s 2 -d 0 -p tcp -e 1040 -c 2 -a 0 -i 12 -k RTR 
- -t 1.054602367 -s 2 -d 0 -p tcp -e 1040 -c 2 -a 0 -i 12 -k RTR
h -t 1.054602367 -s 2 -d 0 -p tcp -e 1040 -c 2 -a 0 -i 12 -k RTR
r -t 1.064806517 -s 0 -d 0 -p tcp -e 1040 -c 2 -a 0 -i 7 -k AGT
+ -t 1.064806517 -s 0 -d -1 -p ack -e 40 -c 2 -a 0 -i 13 -k AGT 
- -t 1.064806517 -s 0 -d -1 -p ack -e 40 -c 2 -a 0 -i 13 -k AGT
h -t 1.064806517 -s 0 -d -1 -p ack -e 40 -c 2 -a 0 -i 13 -k AGT
+ -t 1.064806517 -s 0 -d 2 -p ack -e 40 -c 2 -a 0 -i 13 -k RTR 
- -t 1.064806517 -s 0 -d 2 -p ack -e 40 -c 2 -a 0 -i 13 -k RTR
h -t 1.064806517 -s 0 -d 2 -p ack -e 40 -c 2 -a 0 -i 13 -k RTR
r -t 1.066810667 -s 2 -d 2 -p ack -e 40 -c 2 -a 0 -i 9 -k AGT
+ -t 1.066810667 -s 2 -d -1 -p tcp -e 1040 -c 2 -a 0 -i 14 -k AGT 
- -t 1.066810667 -s 2 -d -1 -p tcp -e 1040 -c 2 -a 0 -i 14 -k AGT
h -t 1.066810667 -s 2 -d -1 -p tcp -e 1040 -c 2 -a 0 -i 14 -k AGT
+ -t 1.066810667 -s 2 -d 0 -p tcp -e 1040 -c 2 -a 0 -i 14 -k RTR 
- -t 1.066810667 -s 2 -d 0 -p tcp -e 1040 -c 2 -a 0 -i 14 -k RTR
h -t 1.066810667 -s 2 -d 0 -p tcp -e 1040 -c 2 -a 0 -i 14 -k RTR
r -t 1.068674867 -s 2 -d 2 -p ack -e 40 -c 2 -a 0 -i 10 -k AGT
+ -t 1.068674867 -s 2 -d -1 -p tcp -e 1040 -c 2 -a 0 -i 15 -k AGT 
- -t 1.068674867 -s 2 -d -1 -p tcp -e 1040 -c 2 -a 0 -i 15 -k AGT
h -t 1.068674867 -s 2 -d -1 -p tcp -e 1040 -c 2 -a 0 -i 15 -k AGT
+ -t 1.068674867 -s 2 -d 0 -p tcp -e 1040 -c 2 -a 0 -i 15 -k RTR 
- -t 1.068674867 -s 2 -d 0 -p tcp -e 1040 -c 2 -a 0 -i 15 -k RTR
h -t 1.068674867 -s 2 -d 0 -p tcp -e 1040 -c 2 -a 0 -i 15 -k RTR
r -t 1.078659017 -s 0 -d 0 -p tcp -e 1040 -c 2 -a 0 -i 11 -k AGT
+ -t 1.078659017 -s 0 -d -1 -p ack -e 40 -c 2 -a 0 -i 16 -k AGT 
- -t 1.078659017 -s 0 -d -1 -p ack -e 40 -c 2 -a 0 -i 16 -k AGT
h -t 1.078659017 -s 0 -d -1 -p ack -e 40 -c 2 -a 0 -i 16 -k AGT
+ -t 1.078659017 -s 0 -d 2 -p ack -e 40 -c 2 -a 0 -i 16 -k RTR 
- -t 1.078659017 -s 0 -d 2 -p ack -e 40 -c 2 -a 0 -i 16 -k RTR
h -t 1.078659017 -s 0 -d 2 -p ack -e 40 -c 2 -a 0 -i 16 -k RTR
r -t 1.080643167 -s 2 -d 2 -p ack -e 40 -c 2 -a 0 -i 13 -k AGT
+ -t 1.080643167 -s 2 -d -1 -p tcp -e 1040 -c 2 -a 0 -i 17 -k AGT 
- -t 1.080643167 -s 2 -d -1 -p tcp -e 1040 -c 2 -a 0 -i 17 -k AGT
h -t 1.080643167 -s 2 -d -1 -p tcp -e 1040 -c 2 -a 0 -i 17 -k AGT
+ -t 1.080643167 -s 2 -d -1 -p tcp -e 1040 -c 2 -a 0 -i 18 -k AGT 
- -t 1.080643167 -s 2 -d -1 -p tcp -e 1040 -c 2 -a 0 -i 18 -k AGT
h -t 1.080643167 -s 2 -d -1 -p tcp -e 1040 -c 2 -a 0 -i 18 -k AGT
+ -t 1.080643167 -s 2 -d 0 -p tcp -e 1040 -c 2 -a 0 -i 17 -k RTR 
- -t 1.080643167 -s 2 -d 0 -p tcp -e 1040 -c 2 -a 0 -i 17 -k RTR
h -t 1.080643167 -s 2 -d 0 -p tcp -e 1040 -c 2 -a 0 -i 17 -k RTR
+ -t 1.080643167 -s 2 -d 0 -p tcp -e 1040 -c 2 -a 0 -i 18 -k RTR 
- -t 1.080643167 -s 2 -d 0 -p tcp -e 1040 -c 2 -a 0 -i 18 -k RTR
h -t 1.080643167 -s 2 -d 0 -p tcp -e 1040 -c 2 -a 0 -i 18 -k RTR
r -t 1.082607367 -s 2 -d 2 -p ack -e 40 -c 2 -a 0 -i 16 -k AGT
+ -t 1.082607367 -s 2 -d -1 -p tcp -e 1040 -c 2 -a 0 -i 19 -k AGT 
- -t 1.082607367 -s 2 -d -1 -p tcp -e 1040 -c 2 -a 0 -i 19 -k AGT
h -t 1.082607367 -s 2 -d -1 -p tcp -e 1040 -c 2 -a 0 -i 19 -k AGT
+ -t 1.082607367 -s 2 -d -1 -p tcp -e 1040 -c 2 -a 0 -i 20 -k AGT 
- -t 1.082607367 -s 2 -d -1 -p tcp -e 1040 -c 2 -a 0 -i 20 -k AGT
h -t 1.082607367 -s 2 -d -1 -p tcp -e 1040 -c 2 -a 0 -i 20 -k AGT
+ -t 1.082607367 -s 2 -d 0 -p tcp -e 1040 -c 2 -a 0 -i 19 -k RTR 
- -t 1.082607367 -s 2 -d 0 -p tcp -e 1040 -c 2 -a 0 -i 19 -k RTR
h -t 1.082607367 -s 2 -d 0 -p tcp -e 1040 -c 2 -a 0 -i 19 -k RTR
+ -t 1.082607367 -s 2 -d 0 -p tcp -e 1040 -c 2 -a 0 -i 20 -k RTR 
- -t 1.082607367 -s 2 -d 0 -p tcp -e 1040 -c 2 -a 0 -i 20 -k RTR
h -t 1.082607367 -s 2 -d 0 -p tcp -e 1040 -c 2 -a 0 -i 20 -k RTR
r -t 1.092511517 -s 0 -d 0 -p tcp -e 1040 -c 2 -a 0 -i 12 -k AGT
+ -t 1.092511517 -s 0 -d -1 -p ack -e 40 -c 2 -a 0 -i 21 -k AGT 
- -t 1.092511517 -s 0 -d -1 -p ack -e 40 -c 2 -a 0 -i 21 -k AGT
h -t 1.092511517 -s 0 -d -1 -p ack -e 40 -c 2 -a 0 -i 21 -k AGT
+ -t 1.092511517 -s 0 -d 2 -p ack -e 40 -c 2 -a 0 -i 21 -k RTR 
- -t 1.092511517 -s 0 -d 2 -p ack -e 40 -c 2 -a 0 -i 21 -k RTR
h -t 1.092511517 -s 0 -d 2 -p ack -e 40 -c 2 -a 0 -i 21 -k RTR
r -t 1.102535717 -s 0 -d 0 -p tcp -e 1040 -c 2 -a 0 -i 14 -k AGT
+ -t 1.102535717 -s 0 -d -1 -p ack -e 40 -c 2 -a 0 -i 22 -k AGT 
- -t 1.102535717 -s 0 -d -1 -p ack -e 40 -c 2 -a 0 -i 22 -k AGT
h -t 1.102535717 -s 0 -d -1 -p ack -e 40 -c 2 -a 0 -i 22 -k AGT
+ -t 1.102535717 -s 0 -d 2 -p ack -e 40 -c 2 -a 0 -i 22 -k RTR 
- -t 1.102535717 -s 0 -d 2 -p ack -e 40 -c 2 -a 0 -i 22 -k RTR
h -t 1.102535717 -s 0 -d 2 -p ack -e 40 -c 2 -a 0 -i 22 -k RTR
r -t 1.104439867 -s 2 -d 2 -p ack -e 40 -c 2 -a 0 -i 21 -k AGT
+ -t 1.104439867 -s 2 -d -1 -p tcp -e 1040 -c 2 -a 0 -i 23 -k AGT 
- -t 1.104439867 -s 2 -d -1 -p tcp -e 1040 -c 2 -a 0 -i 23 -k AGT
h -t 1.104439867 -s 2 -d -1 -p tcp -e 1040 -c 2 -a 0 -i 23 -k AGT
+ -t 1.104439867 -s 2 -d -1 -p tcp -e 1040 -c 2 -a 0 -i 24 -k AGT 
- -t 1.104439867 -s 2 -d -1 -p tcp -e 1040 -c 2 -a 0 -i 24 -k AGT
h -t 1.104439867 -s 2 -d -1 -p tcp -e 1040 -c 2 -a 0 -i 24 -k AGT
+ -t 1.104439867 -s 2 -d 0 -p tcp -e 1040 -c 2 -a 0 -i 23 -k RTR 
- -t 1.104439867 -s 2 -d 0 -p tcp -e 1040 -c 2 -a 0 -i 23 -k RTR
h -t 1.104439867 -s 2 -d 0 -p tcp -e 1040 -c 2 -a 0 -i 23 -k RTR
+ -t 1.104439867 -s 2 -d 0 -p tcp -e 1040 -c 2 -a 0 -i 24 -k RTR 
- -t 1.104439867 -s 2 -d 0 -p tcp -e 1040 -c 2 -a 0 -i 24 -k RTR
h -t 1.104439867 -s 2 -d 0 -p tcp -e 1040 -c 2 -a 0 -i 24 -k RTR
r -t 1.114304017 -s 0 -d 0 -p tcp -e 1040 -c 2 -a 0 -i 15 -k AGT
+ -t 1.114304017 -s 0 -d -1 -p ack -e 40 -c 2 -a 0 -i 25 -k AGT 
- -t 1.114304017 -s 0 -d -1 -p ack -e 40 -c 2 -a 0 -i 25 -k AGT
h -t 1.114304017 -s 0 -d -1 -p ack -e 40 -c 2 -a 0 -i 25 -k AGT
+ -t 1.114304017 -s 0 -d 2 -p ack -e 40 -c 2 -a 0 -i 25 -k RTR 
- -t 1.114304017 -s 0 -d 2 -p ack -e 40 -c 2 -a 0 -i 25 -k RTR
h -t 1.114304017 -s 0 -d 2 -p ack -e 40 -c 2 -a 0 -i 25 -k RTR
r -t 1.124348217 -s 0 -d 0 -p tcp -e 1040 -c 2 -a 0 -i 17 -k AGT
+ -t 1.124348217 -s 0 -d -1 -p ack -e 40 -c 2 -a 0 -i 26 -k AGT 
- -t 1.124348217 -s 0 -d -1 -p ack -e 40 -c 2 -a 0 -i 26 -k AGT
h -t 1.124348217 -s 0 -d -1 -p ack -e 40 -c 2 -a 0 -i 26 -k AGT
+ -t 1.124348217 -s 0 -d 2 -p ack -e 40 -c 2 -a 0 -i 26 -k RTR 
- -t 1.124348217 -s 0 -d 2 -p ack -e 40 -c 2 -a 0 -i 26 -k RTR
h -t 1.124348217 -s 0 -d 2 -p ack -e 40 -c 2 -a 0 -i 26 -k RTR
r -t 1.134372417 -s 0 -d 0 -p tcp -e 1040 -c 2 -a 0 -i 18 -k AGT
+ -t 1.134372417 -s 0 -d -1 -p ack -e 40 -c 2 -a 0 -i 27 -k AGT 
- -t 1.134372417 -s 0 -d -1 -p ack -e 40 -c 2 -a 0 -i 27 -k AGT
h -t 1.134372417 -s 0 -d -1 -p ack -e 40 -c 2 -a 0 -i 27 -k AGT
+ -t 1.134372417 -s 0 -d 2 -p ack -e 40 -c 2 -a 0 -i 27 -k RTR 
- -t 1.134372417 -s 0 -d 2 -p ack -e 40 -c 2 -a 0 -i 27 -k RTR
h -t 1.134372417 -s 0 -d 2 -p ack -e 40 -c 2 -a 0 -i 27 -k RTR
r -t 1.136276567 -s 2 -d 2 -p ack -e 40 -c 2 -a 0 -i 22 -k AGT
+ -t 1.136276567 -s 2 -d -1 -p tcp -e 1040 -c 2 -a 0 -i 28 -k AGT 
- -t 1.136276567 -s 2 -d -1 -p tcp -e 1040 -c 2 -a 0 -i 28 -k AGT
h -t 1.136276567 -s 2 -d -1 -p tcp -e 1040 -c 2 -a 0 -i 28 -k AGT
+ -t 1.136276567 -s 2 -d -1 -p tcp -e 1040 -c 2 -a 0 -i 29 -k AGT 
- -t 1.136276567 -s 2 -d -1 -p tcp -e 1040 -c 2 -a 0 -i 29 -k AGT
h -t 1.136276567 -s 2 -d -1 -p tcp -e 1040 -c 2 -a 0 -i 29 -k AGT
+ -t 1.136276567 -s 2 -d 0 -p tcp -e 1040 -c 2 -a 0 -i 28 -k RTR 
- -t 1.136276567 -s 2 -d 0 -p tcp -e 1040 -c 2 -a 0 -i 28 -k RTR
h -t 1.136276567 -s 2 -d 0 -p tcp -e 1040 -c 2 -a 0 -i 28 -k RTR
+ -t 1.136276567 -s 2 -d 0 -p tcp -e 1040 -c 2 -a 0 -i 29 -k RTR 
- -t 1.136276567 -s 2 -d 0 -p tcp -e 1040 -c 2 -a 0 -i 29 -k RTR
h -t 1.136276567 -s 2 -d 0 -p tcp -e 1040 -c 2 -a 0 -i 29 -k RTR
r -t 1.138160767 -s 2 -d 2 -p ack -e 40 -c 2 -a 0 -i 25 -k AGT
+ -t 1.138160767 -s 2 -d -1 -p tcp -e 1040 -c 2 -a 0 -i 30 -k AGT 
- -t 1.138160767 -s 2 -d -1 -p tcp -e 1040 -c 2 -a 0 -i 30 -k AGT
h -t 1.138160767 -s 2 -d -1 -p tcp -e 1040 -c 2 -a 0 -i 30 -k AGT
+ -t 1.138160767 -s 2 -d -1 -p tcp -e 1040 -c 2 -a 0 -i 31 -k AGT 
- -t 1.138160767 -s 2 -d -1 -p tcp -e 1040 -c 2 -a 0 -i 31 -k AGT
h -t 1.138160767 -s 2 -d -1 -p tcp -e 1040 -c 2 -a 0 -i 31 -k AGT
+ -t 1.138160767 -s 2 -d 0 -p tcp -e 1040 -c 2 -a 0 -i 30 -k RTR 
- -t 1.138160767 -s 2 -d 0 -p tcp -e 1040 -c 2 -a 0 -i 30 -k RTR
h -t 1.138160767 -s 2 -d 0 -p tcp -e 1040 -c 2 -a 0 -i 30 -k RTR
+ -t 1.138160767 -s 2 -d 0 -p tcp -e 1040 -c 2 -a 0 -i 31 -k RTR 
- -t 1.138160767 -s 2 -d 0 -p tcp -e 1040 -c 2 -a 0 -i 31 -k RTR
h -t 1.138160767 -s 2 -d 0 -p tcp -e 1040 -c 2 -a 0 -i 31 -k RTR
r -t 1.140104967 -s 2 -d 2 -p ack -e 40 -c 2 -a 0 -i 26 -k AGT
+ -t 1.140104967 -s 2 -d -1 -p tcp -e 1040 -c 2 -a 0 -i 32 -k AGT 
- -t 1.140104967 -s 2 -d -1 -p tcp -e 1040 -c 2 -a 0 -i 32 -k AGT
h -t 1.140104967 -s 2 -d -1 -p tcp -e 1040 -c 2 -a 0 -i 32 -k AGT
+ -t 1.140104967 -s 2 -d -1 -p tcp -e 1040 -c 2 -a 0 -i 33 -k AGT 
- -t 1.140104967 -s 2 -d -1 -p tcp -e 1040 -c 2 -a 0 -i 33 -k AGT
h -t 1.140104967 -s 2 -d -1 -p tcp -e 1040 -c 2 -a 0 -i 33 -k AGT
+ -t 1.140104967 -s 2 -d 0 -p tcp -e 1040 -c 2 -a 0 -i 32 -k RTR 
- -t 1.140104967 -s 2 -d 0 -p tcp -e 1040 -c 2 -a 0 -i 32 -k RTR
h -t 1.140104967 -s 2 -d 0 -p tcp -e 1040 -c 2 -a 0 -i 32 -k RTR
+ -t 1.140104967 -s 2 -d 0 -p tcp -e 1040 -c 2 -a 0 -i 33 -k RTR 
- -t 1.140104967 -s 2 -d 0 -p tcp -e 1040 -c 2 -a 0 -i 33 -k RTR
h -t 1.140104967 -s 2 -d 0 -p tcp -e 1040 -c 2 -a 0 -i 33 -k RTR
r -t 1.143075167 -s 2 -d 2 -p ack -e 40 -c 2 -a 0 -i 27 -k AGT
+ -t 1.143075167 -s 2 -d -1 -p tcp -e 1040 -c 2 -a 0 -i 34 -k AGT 
- -t 1.143075167 -s 2 -d -1 -p tcp -e 1040 -c 2 -a 0 -i 34 -k AGT
h -t 1.143075167 -s 2 -d -1 -p tcp -e 1040 -c 2 -a 0 -i 34 -k AGT
+ -t 1.143075167 -s 2 -d -1 -p tcp -e 1040 -c 2 -a 0 -i 35 -k AGT 
- -t 1.143075167 -s 2 -d -1 -p tcp -e 1040 -c 2 -a 0 -i 35 -k AGT
h -t 1.143075167 -s 2 -d -1 -p tcp -e 1040 -c 2 -a 0 -i 35 -k AGT
+ -t 1.143075167 -s 2 -d 0 -p tcp -e 1040 -c 2 -a 0 -i 34 -k RTR 
- -t 1.143075167 -s 2 -d 0 -p tcp -e 1040 -c 2 -a 0 -i 34 -k RTR
h -t 1.143075167 -s 2 -d 0 -p tcp -e 1040 -c 2 -a 0 -i 34 -k RTR
+ -t 1.143075167 -s 2 -d 0 -p tcp -e 1040 -c 2 -a 0 -i 35 -k RTR 
- -t 1.143075167 -s 2 -d 0 -p tcp -e 1040 -c 2 -a 0 -i 35 -k RTR
h -t 1.143075167 -s 2 -d 0 -p tcp -e 1040 -c 2 -a 0 -i 35 -k RTR
r -t 1.153559317 -s 0 -d 0 -p tcp -e 1040 -c 2 -a 0 -i 19 -k AGT
+ -t 1.153559317 -s 0 -d -1 -p ack -e 40 -c 2 -a 0 -i 36 -k AGT 
- -t 1.153559317 -s 0 -d -1 -p ack -e 40 -c 2 -a 0 -i 36 -k AGT
h -t 1.153559317 -s 0 -d -1 -p ack -e 40 -c 2 -a 0 -i 36 -k AGT
+ -t 1.153559317 -s 0 -d 2 -p ack -e 40 -c 2 -a 0 -i 36 -k RTR 
- -t 1.153559317 -s 0 -d 2 -p ack -e 40 -c 2 -a 0 -i 36 -k RTR
h -t 1.153559317 -s 0 -d 2 -p ack -e 40 -c 2 -a 0 -i 36 -k RTR
r -t 1.155663467 -s 2 -d 2 -p ack -e 40 -c 2 -a 0 -i 36 -k AGT
+ -t 1.155663467 -s 2 -d -1 -p tcp -e 1040 -c 2 -a 0 -i 37 -k AGT 
- -t 1.155663467 -s 2 -d -1 -p tcp -e 1040 -c 2 -a 0 -i 37 -k AGT
h -t 1.155663467 -s 2 -d -1 -p tcp -e 1040 -c 2 -a 0 -i 37 -k AGT
+ -t 1.155663467 -s 2 -d -1 -p tcp -e 1040 -c 2 -a 0 -i 38 -k AGT 
- -t 1.155663467 -s 2 -d -1 -p tcp -e 1040 -c 2 -a 0 -i 38 -k AGT
h -t 1.155663467 -s 2 -d -1 -p tcp -e 1040 -c 2 -a 0 -i 38 -k AGT
+ -t 1.155663467 -s 2 -d 0 -p tcp -e 1040 -c 2 -a 0 -i 37 -k RTR 
- -t 1.155663467 -s 2 -d 0 -p tcp -e 1040 -c 2 -a 0 -i 37 -k RTR
h -t 1.155663467 -s 2 -d 0 -p tcp -e 1040 -c 2 -a 0 -i 37 -k RTR
+ -t 1.155663467 -s 2 -d 0 -p tcp -e 1040 -c 2 -a 0 -i 38 -k RTR 
- -t 1.155663467 -s 2 -d 0 -p tcp -e 1040 -c 2 -a 0 -i 38 -k RTR
h -t 1.155663467 -s 2 -d 0 -p tcp -e 1040 -c 2 -a 0 -i 38 -k RTR
r -t 1.165707617 -s 0 -d 0 -p tcp -e 1040 -c 2 -a 0 -i 20 -k AGT
+ -t 1.165707617 -s 0 -d -1 -p ack -e 40 -c 2 -a 0 -i 39 -k AGT 
- -t 1.165707617 -s 0 -d -1 -p ack -e 40 -c 2 -a 0 -i 39 -k AGT
h -t 1.165707617 -s 0 -d -1 -p ack -e 40 -c 2 -a 0 -i 39 -k AGT
+ -t 1.165707617 -s 0 -d 2 -p ack -e 40 -c 2 -a 0 -i 39 -k RTR 
- -t 1.165707617 -s 0 -d 2 -p ack -e 40 -c 2 -a 0 -i 39 -k RTR
h -t 1.165707617 -s 0 -d 2 -p ack -e 40 -c 2 -a 0 -i 39 -k RTR
r -t 1.167751767 -s 2 -d 2 -p ack -e 40 -c 2 -a 0 -i 39 -k AGT
+ -t 1.167751767 -s 2 -d -1 -p tcp -e 1040 -c 2 -a 0 -i 40 -k AGT 
- -t 1.167751767 -s 2 -d -1 -p tcp -e 1040 -c 2 -a 0 -i 40 -k AGT
h -t 1.167751767 -s 2 -d -1 -p tcp -e 1040 -c 2 -a 0 -i 40 -k AGT
+ -t 1.167751767 -s 2 -d -1 -p tcp -e 1040 -c 2 -a 0 -i 41 -k AGT 
- -t 1.167751767 -s 2 -d -1 -p tcp -e 1040 -c 2 -a 0 -i 41 -k AGT
h -t 1.167751767 -s 2 -d -1 -p tcp -e 1040 -c 2 -a 0 -i 41 -k AGT
+ -t 1.167751767 -s 2 -d 0 -p tcp -e 1040 -c 2 -a 0 -i 40 -k RTR 
- -t 1.167751767 -s 2 -d 0 -p tcp -e 1040 -c 2 -a 0 -i 40 -k RTR
h -t 1.167751767 -s 2 -d 0 -p tcp -e 1040 -c 2 -a 0 -i 40 -k RTR
+ -t 1.167751767 -s 2 -d 0 -p tcp -e 1040 -c 2 -a 0 -i 41 -k RTR 
- -t 1.167751767 -s 2 -d 0 -p tcp -e 1040 -c 2 -a 0 -i 41 -k RTR
h -t 1.167751767 -s 2 -d 0 -p tcp -e 1040 -c 2 -a 0 -i 41 -k RTR
r -t 1.177695917 -s 0 -d 0 -p tcp -e 1040 -c 2 -a 0 -i 23 -k AGT
+ -t 1.177695917 -s 0 -d -1 -p ack -e 40 -c 2 -a 0 -i 42 -k AGT 
- -t 1.177695917 -s 0 -d -1 -p ack -e 40 -c 2 -a 0 -i 42 -k AGT
h -t 1.177695917 -s 0 -d -1 -p ack -e 40 -c 2 -a 0 -i 42 -k AGT
+ -t 1.177695917 -s 0 -d 2 -p ack -e 40 -c 2 -a 0 -i 42 -k RTR 
- -t 1.177695917 -s 0 -d 2 -p ack -e 40 -c 2 -a 0 -i 42 -k RTR
h -t 1.177695917 -s 0 -d 2 -p ack -e 40 -c 2 -a 0 -i 42 -k RTR
r -t 1.179580067 -s 2 -d 2 -p ack -e 40 -c 2 -a 0 -i 42 -k AGT
+ -t 1.179580067 -s 2 -d -1 -p tcp -e 1040 -c 2 -a 0 -i 43 -k AGT 
- -t 1.179580067 -s 2 -d -1 -p tcp -e 1040 -c 2 -a 0 -i 43 -k AGT
h -t 1.179580067 -s 2 -d -1 -p tcp -e 1040 -c 2 -a 0 -i 43 -k AGT
+ -t 1.179580067 -s 2 -d -1 -p tcp -e 1040 -c 2 -a 0 -i 44 -k AGT 
- -t 1.179580067 -s 2 -d -1 -p tcp -e 1040 -c 2 -a 0 -i 44 -k AGT
h -t 1.179580067 -s 2 -d -1 -p tcp -e 1040 -c 2 -a 0 -i 44 -k AGT
+ -t 1.179580067 -s 2 -d 0 -p tcp -e 1040 -c 2 -a 0 -i 43 -k RTR 
- -t 1.179580067 -s 2 -d 0 -p tcp -e 1040 -c 2 -a 0 -i 43 -k RTR
h -t 1.179580067 -s 2 -d 0 -p tcp -e 1040 -c 2 -a 0 -i 43 -k RTR
+ -t 1.179580067 -s 2 -d 0 -p tcp -e 1040 -c 2 -a 0 -i 44 -k RTR 
- -t 1.179580067 -s 2 -d 0 -p tcp -e 1040 -c 2 -a 0 -i 44 -k RTR
h -t 1.179580067 -s 2 -d 0 -p tcp -e 1040 -c 2 -a 0 -i 44 -k RTR
r -t 1.189584217 -s 0 -d 0 -p tcp -e 1040 -c 2 -a 0 -i 24 -k AGT
+ -t 1.189584217 -s 0 -d -1 -p ack -e 40 -c 2 -a 0 -i 45 -k AGT 
- -t 1.189584217 -s 0 -d -1 -p ack -e 40 -c 2 -a 0 -i 45 -k AGT
h -t 1.189584217 -s 0 -d -1 -p ack -e 40 -c 2 -a 0 -i 45 -k AGT
+ -t 1.189584217 -s 0 -d 2 -p ack -e 40 -c 2 -a 0 -i 45 -k RTR 
- -t 1.189584217 -s 0 -d 2 -p ack -e 40 -c 2 -a 0 -i 45 -k RTR
h -t 1.189584217 -s 0 -d 2 -p ack -e 40 -c 2 -a 0 -i 45 -k RTR
r -t 1.199408417 -s 0 -d 0 -p tcp -e 1040 -c 2 -a 0 -i 28 -k AGT
+ -t 1.199408417 -s 0 -d -1 -p ack -e 40 -c 2 -a 0 -i 46 -k AGT 
- -t 1.199408417 -s 0 -d -1 -p ack -e 40 -c 2 -a 0 -i 46 -k AGT
h -t 1.199408417 -s 0 -d -1 -p ack -e 40 -c 2 -a 0 -i 46 -k AGT
+ -t 1.199408417 -s 0 -d 2 -p ack -e 40 -c 2 -a 0 -i 46 -k RTR 
- -t 1.199408417 -s 0 -d 2 -p ack -e 40 -c 2 -a 0 -i 46 -k RTR
h -t 1.199408417 -s 0 -d 2 -p ack -e 40 -c 2 -a 0 -i 46 -k RTR
r -t 1.209472617 -s 0 -d 0 -p tcp -e 1040 -c 2 -a 0 -i 29 -k AGT
+ -t 1.209472617 -s 0 -d -1 -p ack -e 40 -c 2 -a 0 -i 47 -k AGT 
- -t 1.209472617 -s 0 -d -1 -p ack -e 40 -c 2 -a 0 -i 47 -k AGT
h -t 1.209472617 -s 0 -d -1 -p ack -e 40 -c 2 -a 0 -i 47 -k AGT
+ -t 1.209472617 -s 0 -d 2 -p ack -e 40 -c 2 -a 0 -i 47 -k RTR 
- -t 1.209472617 -s 0 -d 2 -p ack -e 40 -c 2 -a 0 -i 47 -k RTR
h -t 1.209472617 -s 0 -d 2 -p ack -e 40 -c 2 -a 0 -i 47 -k RTR
r -t 1.211356767 -s 2 -d 2 -p ack -e 40 -c 2 -a 0 -i 45 -k AGT
+ -t 1.211356767 -s 2 -d -1 -p tcp -e 1040 -c 2 -a 0 -i 48 -k AGT 
- -t 1.211356767 -s 2 -d -1 -p tcp -e 1040 -c 2 -a 0 -i 48 -k AGT
h -t 1.211356767 -s 2 -d -1 -p tcp -e 1040 -c 2 -a 0 -i 48 -k AGT
+ -t 1.211356767 -s 2 -d -1 -p tcp -e 1040 -c 2 -a 0 -i 49 -k AGT 
- -t 1.211356767 -s 2 -d -1 -p tcp -e 1040 -c 2 -a 0 -i 49 -k AGT
h -t 1.211356767 -s 2 -d -1 -p tcp -e 1040 -c 2 -a 0 -i 49 -k AGT
+ -t 1.211356767 -s 2 -d 0 -p tcp -e 1040 -c 2 -a 0 -i 48 -k RTR 
- -t 1.211356767 -s 2 -d 0 -p tcp -e 1040 -c 2 -a 0 -i 48 -k RTR
h -t 1.211356767 -s 2 -d 0 -p tcp -e 1040 -c 2 -a 0 -i 48 -k RTR
+ -t 1.211356767 -s 2 -d 0 -p tcp -e 1040 -c 2 -a 0 -i 49 -k RTR 
- -t 1.211356767 -s 2 -d 0 -p tcp -e 1040 -c 2 -a 0 -i 49 -k RTR
h -t 1.211356767 -s 2 -d 0 -p tcp -e 1040 -c 2 -a 0 -i 49 -k RTR
r -t 1.221440917 -s 0 -d 0 -p tcp -e 1040 -c 2 -a 0 -i 30 -k AGT
+ -t 1.221440917 -s 0 -d -1 -p ack -e 40 -c 2 -a 0 -i 50 -k AGT 
- -t 1.221440917 -s 0 -d -1 -p ack -e 40 -c 2 -a 0 -i 50 -k AGT
h -t 1.221440917 -s 0 -d -1 -p ack -e 40 -c 2 -a 0 -i 50 -k AGT
+ -t 1.221440917 -s 0 -d 2 -p ack -e 40 -c 2 -a 0 -i 50 -k RTR 
- -t 1.221440917 -s 0 -d 2 -p ack -e 40 -c 2 -a 0 -i 50 -k RTR
h -t 1.221440917 -s 0 -d 2 -p ack -e 40 -c 2 -a 0 -i 50 -k RTR
r -t 1.231285117 -s 0 -d 0 -p tcp -e 1040 -c 2 -a 0 -i 31 -k AGT
+ -t 1.231285117 -s 0 -d -1 -p ack -e 40 -c 2 -a 0 -i 51 -k AGT 
- -t 1.231285117 -s 0 -d -1 -p ack -e 40 -c 2 -a 0 -i 51 -k AGT
h -t 1.231285117 -s 0 -d -1 -p ack -e 40 -c 2 -a 0 -i 51 -k AGT
+ -t 1.231285117 -s 0 -d 2 -p ack -e 40 -c 2 -a 0 -i 51 -k RTR 
- -t 1.231285117 -s 0 -d 2 -p ack -e 40 -c 2 -a 0 -i 51 -k RTR
h -t 1.231285117 -s 0 -d 2 -p ack -e 40 -c 2 -a 0 -i 51 -k RTR
r -t 1.233129267 -s 2 -d 2 -p ack -e 40 -c 2 -a 0 -i 46 -k AGT
+ -t 1.233129267 -s 2 -d -1 -p tcp -e 1040 -c 2 -a 0 -i 52 -k AGT 
- -t 1.233129267 -s 2 -d -1 -p tcp -e 1040 -c 2 -a 0 -i 52 -k AGT
h -t 1.233129267 -s 2 -d -1 -p tcp -e 1040 -c 2 -a 0 -i 52 -k AGT
+ -t 1.233129267 -s 2 -d -1 -p tcp -e 1040 -c 2 -a 0 -i 53 -k AGT 
- -t 1.233129267 -s 2 -d -1 -p tcp -e 1040 -c 2 -a 0 -i 53 -k AGT
h -t 1.233129267 -s 2 -d -1 -p tcp -e 1040 -c 2 -a 0 -i 53 -k AGT
+ -t 1.233129267 -s 2 -d 0 -p tcp -e 1040 -c 2 -a 0 -i 52 -k RTR 
- -t 1.233129267 -s 2 -d 0 -p tcp -e 1040 -c 2 -a 0 -i 52 -k RTR
h -t 1.233129267 -s 2 -d 0 -p tcp -e 1040 -c 2 -a 0 -i 52 -k RTR
+ -t 1.233129267 -s 2 -d 0 -p tcp -e 1040 -c 2 -a 0 -i 53 -k RTR 
- -t 1.233129267 -s 2 -d 0 -p tcp -e 1040 -c 2 -a 0 -i 53 -k RTR
h -t 1.233129267 -s 2 -d 0 -p tcp -e 1040 -c 2 -a 0 -i 53 -k RTR
r -t 1.235193467 -s 2 -d 2 -p ack -e 40 -c 2 -a 0 -i 47 -k AGT
+ -t 1.235193467 -s 2 -d -1 -p tcp -e 1040 -c 2 -a 0 -i 54 -k AGT 
- -t 1.235193467 -s 2 -d -1 -p tcp -e 1040 -c 2 -a 0 -i 54 -k AGT
h -t 1.235193467 -s 2 -d -1 -p tcp -e 1040 -c 2 -a 0 -i 54 -k AGT
+ -t 1.235193467 -s 2 -d -1 -p tcp -e 1040 -c 2 -a 0 -i 55 -k AGT 
- -t 1.235193467 -s 2 -d -1 -p tcp -e 1040 -c 2 -a 0 -i 55 -k AGT
h -t 1.235193467 -s 2 -d -1 -p tcp -e 1040 -c 2 -a 0 -i 55 -k AGT
+ -t 1.235193467 -s 2 -d 0 -p tcp -e 1040 -c 2 -a 0 -i 54 -k RTR 
- -t 1.235193467 -s 2 -d 0 -p tcp -e 1040 -c 2 -a 0 -i 54 -k RTR
h -t 1.235193467 -s 2 -d 0 -p tcp -e 1040 -c 2 -a 0 -i 54 -k RTR
+ -t 1.235193467 -s 2 -d 0 -p tcp -e 1040 -c 2 -a 0 -i 55 -k RTR 
- -t 1.235193467 -s 2 -d 0 -p tcp -e 1040 -c 2 -a 0 -i 55 -k RTR
h -t 1.235193467 -s 2 -d 0 -p tcp -e 1040 -c 2 -a 0 -i 55 -k RTR
r -t 1.237137667 -s 2 -d 2 -p ack -e 40 -c 2 -a 0 -i 50 -k AGT
+ -t 1.237137667 -s 2 -d -1 -p tcp -e 1040 -c 2 -a 0 -i 56 -k AGT 
- -t 1.237137667 -s 2 -d -1 -p tcp -e 1040 -c 2 -a 0 -i 56 -k AGT
h -t 1.237137667 -s 2 -d -1 -p tcp -e 1040 -c 2 -a 0 -i 56 -k AGT
+ -t 1.237137667 -s 2 -d -1 -p tcp -e 1040 -c 2 -a 0 -i 57 -k AGT 
- -t 1.237137667 -s 2 -d -1 -p tcp -e 1040 -c 2 -a 0 -i 57 -k AGT
h -t 1.237137667 -s 2 -d -1 -p tcp -e 1040 -c 2 -a 0 -i 57 -k AGT
+ -t 1.237137667 -s 2 -d 0 -p tcp -e 1040 -c 2 -a 0 -i 56 -k RTR 
- -t 1.237137667 -s 2 -d 0 -p tcp -e 1040 -c 2 -a 0 -i 56 -k RTR
h -t 1.237137667 -s 2 -d 0 -p tcp -e 1040 -c 2 -a 0 -i 56 -k RTR
+ -t 1.237137667 -s 2 -d 0 -p tcp -e 1040 -c 2 -a 0 -i 57 -k RTR 
- -t 1.237137667 -s 2 -d 0 -p tcp -e 1040 -c 2 -a 0 -i 57 -k RTR
h -t 1.237137667 -s 2 -d 0 -p tcp -e 1040 -c 2 -a 0 -i 57 -k RTR
r -t 1.247081817 -s 0 -d 0 -p tcp -e 1040 -c 2 -a 0 -i 32 -k AGT
+ -t 1.247081817 -s 0 -d -1 -p ack -e 40 -c 2 -a 0 -i 58 -k AGT 
- -t 1.247081817 -s 0 -d -1 -p ack -e 40 -c 2 -a 0 -i 58 -k AGT
h -t 1.247081817 -s 0 -d -1 -p ack -e 40 -c 2 -a 0 -i 58 -k AGT
+ -t 1.247081817 -s 0 -d 2 -p ack -e 40 -c 2 -a 0 -i 58 -k RTR 
- -t 1.247081817 -s 0 -d 2 -p ack -e 40 -c 2 -a 0 -i 58 -k RTR
h -t 1.247081817 -s 0 -d 2 -p ack -e 40 -c 2 -a 0 -i 58 -k RTR
r -t 1.256946017 -s 0 -d 0 -p tcp -e 1040 -c 2 -a 0 -i 33 -k AGT
+ -t 1.256946017 -s 0 -d -1 -p ack -e 40 -c 2 -a 0 -i 59 -k AGT 
- -t 1.256946017 -s 0 -d -1 -p ack -e 40 -c 2 -a 0 -i 59 -k AGT
h -t 1.256946017 -s 0 -d -1 -p ack -e 40 -c 2 -a 0 -i 59 -k AGT
+ -t 1.256946017 -s 0 -d 2 -p ack -e 40 -c 2 -a 0 -i 59 -k RTR 
- -t 1.256946017 -s 0 -d 2 -p ack -e 40 -c 2 -a 0 -i 59 -k RTR
h -t 1.256946017 -s 0 -d 2 -p ack -e 40 -c 2 -a 0 -i 59 -k RTR
r -t 1.258930167 -s 2 -d 2 -p ack -e 40 -c 2 -a 0 -i 51 -k AGT
+ -t 1.258930167 -s 2 -d -1 -p tcp -e 1040 -c 2 -a 0 -i 60 -k AGT 
- -t 1.258930167 -s 2 -d -1 -p tcp -e 1040 -c 2 -a 0 -i 60 -k AGT
h -t 1.258930167 -s 2 -d -1 -p tcp -e 1040 -c 2 -a 0 -i 60 -k AGT
+ -t 1.258930167 -s 2 -d -1 -p tcp -e 1040 -c 2 -a 0 -i 61 -k AGT 
- -t 1.258930167 -s 2 -d -1 -p tcp -e 1040 -c 2 -a 0 -i 61 -k AGT
h -t 1.258930167 -s 2 -d -1 -p tcp -e 1040 -c 2 -a 0 -i 61 -k AGT
+ -t 1.258930167 -s 2 -d 0 -p tcp -e 1040 -c 2 -a 0 -i 60 -k RTR 
- -t 1.258930167 -s 2 -d 0 -p tcp -e 1040 -c 2 -a 0 -i 60 -k RTR
h -t 1.258930167 -s 2 -d 0 -p tcp -e 1040 -c 2 -a 0 -i 60 -k RTR
+ -t 1.258930167 -s 2 -d 0 -p tcp -e 1040 -c 2 -a 0 -i 61 -k RTR 
- -t 1.258930167 -s 2 -d 0 -p tcp -e 1040 -c 2 -a 0 -i 61 -k RTR
h -t 1.258930167 -s 2 -d 0 -p tcp -e 1040 -c 2 -a 0 -i 61 -k RTR
r -t 1.260874367 -s 2 -d 2 -p ack -e 40 -c 2 -a 0 -i 58 -k AGT
+ -t 1.260874367 -s 2 -d -1 -p tcp -e 1040 -c 2 -a 0 -i 62 -k AGT 
- -t 1.260874367 -s 2 -d -1 -p tcp -e 1040 -c 2 -a 0 -i 62 -k AGT
h -t 1.260874367 -s 2 -d -1 -p tcp -e 1040 -c 2 -a 0 -i 62 -k AGT
+ -t 1.260874367 -s 2 -d 0 -p tcp -e 1040 -c 2 -a 0 -i 62 -k RTR 
- -t 1.260874367 -s 2 -d 0 -p tcp -e 1040 -c 2 -a 0 -i 62 -k RTR
h -t 1.260874367 -s 2 -d 0 -p tcp -e 1040 -c 2 -a 0 -i 62 -k RTR
r -t 1.271784617 -s 0 -d 0 -p tcp -e 1040 -c 2 -a 0 -i 34 -k AGT
+ -t 1.271784617 -s 0 -d -1 -p ack -e 40 -c 2 -a 0 -i 63 -k AGT 
- -t 1.271784617 -s 0 -d -1 -p ack -e 40 -c 2 -a 0 -i 63 -k AGT
h -t 1.271784617 -s 0 -d -1 -p ack -e 40 -c 2 -a 0 -i 63 -k AGT
+ -t 1.271784617 -s 0 -d 2 -p ack -e 40 -c 2 -a 0 -i 63 -k RTR 
- -t 1.271784617 -s 0 -d 2 -p ack -e 40 -c 2 -a 0 -i 63 -k RTR
h -t 1.271784617 -s 0 -d 2 -p ack -e 40 -c 2 -a 0 -i 63 -k RTR
r -t 1.281868817 -s 0 -d 0 -p tcp -e 1040 -c 2 -a 0 -i 35 -k AGT
+ -t 1.281868817 -s 0 -d -1 -p ack -e 40 -c 2 -a 0 -i 64 -k AGT 
- -t 1.281868817 -s 0 -d -1 -p ack -e 40 -c 2 -a 0 -i 64 -k AGT
h -t 1.281868817 -s 0 -d -1 -p ack -e 40 -c 2 -a 0 -i 64 -k AGT
+ -t 1.281868817 -s 0 -d 2 -p ack -e 40 -c 2 -a 0 -i 64 -k RTR 
- -t 1.281868817 -s 0 -d 2 -p ack -e 40 -c 2 -a 0 -i 64 -k RTR
h -t 1.281868817 -s 0 -d 2 -p ack -e 40 -c 2 -a 0 -i 64 -k RTR