s 0.000821201 _0_ RTR  --- 0 message 32 [0 0 0 0] ------- [0:255 -1:255 32 0] 
r 0.001961368 _1_ RTR  --- 0 message 32 [0 ffffffff 0 800] ------- [0:255 -1:255 32 0] 
s 1.000000000 _1_ AGT  --- 1 cbr 512 [0 0 0 0] ------- [1:0 0:0 32 0] [0] 0 0
r 1.000000000 _1_ RTR  --- 1 cbr 512 [0 0 0 0] ------- [1:0 0:0 32 0] [0] 0 0
s 1.000000000 _1_ RTR  --- 1 cbr 532 [0 0 0 0] ------- [1:0 0:0 32 0] [0] 0 0
s 1.004096000 _1_ AGT  --- 2 cbr 512 [0 0 0 0] ------- [1:0 0:0 32 0] [1] 0 0
r 1.004096000 _1_ RTR  --- 2 cbr 512 [0 0 0 0] ------- [1:0 0:0 32 0] [1] 0 0
s 1.004096000 _1_ RTR  --- 2 cbr 532 [0 0 0 0] ------- [1:0 0:0 32 0] [1] 0 0
s 1.008192000 _1_ AGT  --- 3 cbr 512 [0 0 0 0] ------- [1:0 0:0 32 0] [2] 0 0
r 1.008192000 _1_ RTR  --- 3 cbr 512 [0 0 0 0] ------- [1:0 0:0 32 0] [2] 0 0
s 1.008192000 _1_ RTR  --- 3 cbr 532 [0 0 0 0] ------- [1:0 0:0 32 0] [2] 0 0
r 1.008708167 _0_ AGT  --- 1 cbr 532 [13a 0 1 800] ------- [1:0 0:0 32 0] [0] 1 0
s 1.012288000 _1_ AGT  --- 4 cbr 512 [0 0 0 0] ------- [1:0 0:0 32 0] [3] 0 0
r 1.012288000 _1_ RTR  --- 4 cbr 512 [0 0 0 0] ------- [1:0 0:0 32 0] [3] 0 0
s 1.012288000 _1_ RTR  --- 4 cbr 532 [0 0 0 0] ------- [1:0 0:0 32 0] [3] 0 0
r 1.014708833 _0_ AGT  --- 2 cbr 532 [13a 0 1 800] ------- [1:0 0:0 32 0] [1] 1 0
s 1.016384000 _1_ AGT  --- 5 cbr 512 [0 0 0 0] ------- [1:0 0:0 32 0] [4] 0 0
r 1.016384000 _1_ RTR  --- 5 cbr 512 [0 0 0 0] ------- [1:0 0:0 32 0] [4] 0 0
s 1.016384000 _1_ RTR  --- 5 cbr 532 [0 0 0 0] ------- [1:0 0:0 32 0] [4] 0 0
s 1.020480000 _1_ AGT  --- 6 cbr 512 [0 0 0 0] ------- [1:0 0:0 32 0] [5] 0 0
r 1.020480000 _1_ RTR  --- 6 cbr 512 [0 0 0 0] ------- [1:0 0:0 32 0] [5] 0 0
s 1.020480000 _1_ RTR  --- 6 cbr 532 [0 0 0 0] ------- [1:0 0:0 32 0] [5] 0 0
r 1.020509500 _0_ AGT  --- 3 cbr 532 [13a 0 1 800] ------- [1:0 0:0 32 0] [2] 1 0
s 1.024576000 _1_ AGT  --- 7 cbr 512 [0 0 0 0] ------- [1:0 0:0 32 0] [6] 0 0
r 1.024576000 _1_ RTR  --- 7 cbr 512 [0 0 0 0] ------- [1:0 0:0 32 0] [6] 0 0
s 1.024576000 _1_ RTR  --- 7 cbr 532 [0 0 0 0] ------- [1:0 0:0 32 0] [6] 0 0
r 1.026810167 _0_ AGT  --- 4 cbr 532 [13a 0 1 800] ------- [1:0 0:0 32 0] [3] 1 0
s 1.028672000 _1_ AGT  --- 8 cbr 512 [0 0 0 0] ------- [1:0 0:0 32 0] [7] 0 0
r 1.028672000 _1_ RTR  --- 8 cbr 512 [0 0 0 0] ------- [1:0 0:0 32 0] [7] 0 0
s 1.028672000 _1_ RTR  --- 8 cbr 532 [0 0 0 0] ------- [1:0 0:0 32 0] [7] 0 0
r 1.032730833 _0_ AGT  --- 5 cbr 532 [13a 0 1 800] ------- [1:0 0:0 32 0] [4] 1 0
s 1.032768000 _1_ AGT  --- 9 cbr 512 [0 0 0 0] ------- [1:0 0:0 32 0] [8] 0 0
r 1.032768000 _1_ RTR  --- 9 cbr 512 [0 0 0 0] ------- [1:0 0:0 32 0] [8] 0 0
s 1.032768000 _1_ RTR  --- 9 cbr 532 [0 0 0 0] ------- [1:0 0:0 32 0] [8] 0 0
s 1.036864000 _1_ AGT  --- 10 cbr 512 [0 0 0 0] ------- [1:0 0:0 32 0] [9] 0 0
r 1.036864000 _1_ RTR  --- 10 cbr 512 [0 0 0 0] ------- [1:0 0:0 32 0] [9] 0 0
s 1.036864000 _1_ RTR  --- 10 cbr 532 [0 0 0 0] ------- [1:0 0:0 32 0] [9] 0 0
r 1.038851500 _0_ AGT  --- 6 cbr 532 [13a 0 1 800] ------- [1:0 0:0 32 0] [5] 1 0
s 1.040960000 _1_ AGT  --- 11 cbr 512 [0 0 0 0] ------- [1:0 0:0 32 0] [10] 0 0
r 1.040960000 _1_ RTR  --- 11 cbr 512 [0 0 0 0] ------- [1:0 0:0 32 0] [10] 0 0
s 1.040960000 _1_ RTR  --- 11 cbr 532 [0 0 0 0] ------- [1:0 0:0 32 0] [10] 0 0
r 1.044852167 _0_ AGT  --- 7 cbr 532 [13a 0 1 800] ------- [1:0 0:0 32 0] [6] 1 0
s 1.045056000 _1_ AGT  --- 12 cbr 512 [0 0 0 0] ------- [1:0 0:0 32 0] [11] 0 0
r 1.045056000 _1_ RTR  --- 12 cbr 512 [0 0 0 0] ------- [1:0 0:0 32 0] [11] 0 0
s 1.045056000 _1_ RTR  --- 12 cbr 532 [0 0 0 0] ------- [1:0 0:0 32 0] [11] 0 0
s 1.049152000 _1_ AGT  --- 13 cbr 512 [0 0 0 0] ------- [1:0 0:0 32 0] [12] 0 0
r 1.049152000 _1_ RTR  --- 13 cbr 512 [0 0 0 0] ------- [1:0 0:0 32 0] [12] 0 0
s 1.049152000 _1_ RTR  --- 13 cbr 532 [0 0 0 0] ------- [1:0 0:0 32 0] [12] 0 0
r 1.050772833 _0_ AGT  --- 8 cbr 532 [13a 0 1 800] ------- [1:0 0:0 32 0] [7] 1 0
s 1.053248000 _1_ AGT  --- 14 cbr 512 [0 0 0 0] ------- [1:0 0:0 32 0] [13] 0 0
r 1.053248000 _1_ RTR  --- 14 cbr 512 [0 0 0 0] ------- [1:0 0:0 32 0] [13] 0 0
s 1.053248000 _1_ RTR  --- 14 cbr 532 [0 0 0 0] ------- [1:0 0:0 32 0] [13] 0 0
r 1.057013500 _0_ AGT  --- 9 cbr 532 [13a 0 1 800] ------- [1:0 0:0 32 0] [8] 1 0
s 1.057344000 _1_ AGT  --- 15 cbr 512 [0 0 0 0] ------- [1:0 0:0 32 0] [14] 0 0
r 1.057344000 _1_ RTR  --- 15 cbr 512 [0 0 0 0] ------- [1:0 0:0 32 0] [14] 0 0
s 1.057344000 _1_ RTR  --- 15 cbr 532 [0 0 0 0] ------- [1:0 0:0 32 0] [14] 0 0
s 1.061440000 _1_ AGT  --- 16 cbr 512 [0 0 0 0] ------- [1:0 0:0 32 0] [15] 0 0
r 1.061440000 _1_ RTR  --- 16 cbr 512 [0 0 0 0] ------- [1:0 0:0 32 0] [15] 0 0
s 1.061440000 _1_ RTR  --- 16 cbr 532 [0 0 0 0] ------- [1:0 0:0 32 0] [15] 0 0
r 1.063114167 _0_ AGT  --- 10 cbr 532 [13a 0 1 800] ------- [1:0 0:0 32 0] [9] 1 0
s 1.065536000 _1_ AGT  --- 17 cbr 512 [0 0 0 0] ------- [1:0 0:0 32 0] [16] 0 0
r 1.065536000 _1_ RTR  --- 17 cbr 512 [0 0 0 0] ------- [1:0 0:0 32 0] [16] 0 0
s 1.065536000 _1_ RTR  --- 17 cbr 532 [0 0 0 0] ------- [1:0 0:0 32 0] [16] 0 0
r 1.069194833 _0_ AGT  --- 11 cbr 532 [13a 0 1 800] ------- [1:0 0:0 32 0] [10] 1 0
s 1.069632000 _1_ AGT  --- 18 cbr 512 [0 0 0 0] ------- [1:0 0:0 32 0] [17] 0 0
r 1.069632000 _1_ RTR  --- 18 cbr 512 [0 0 0 0] ------- [1:0 0:0 32 0] [17] 0 0
s 1.069632000 _1_ RTR  --- 18 cbr 532 [0 0 0 0] ------- [1:0 0:0 32 0] [17] 0 0
s 1.073728000 _1_ AGT  --- 19 cbr 512 [0 0 0 0] ------- [1:0 0:0 32 0] [18] 0 0
r 1.073728000 _1_ RTR  --- 19 cbr 512 [0 0 0 0] ------- [1:0 0:0 32 0] [18] 0 0
s 1.073728000 _1_ RTR  --- 19 cbr 532 [0 0 0 0] ------- [1:0 0:0 32 0] [18] 0 0
r 1.075155500 _0_ AGT  --- 12 cbr 532 [13a 0 1 800] ------- [1:0 0:0 32 0] [11] 1 0
s 1.077824000 _1_ AGT  --- 20 cbr 512 [0 0 0 0] ------- [1:0 0:0 32 0] [19] 0 0
r 1.077824000 _1_ RTR  --- 20 cbr 512 [0 0 0 0] ------- [1:0 0:0 32 0] [19] 0 0
s 1.077824000 _1_ RTR  --- 20 cbr 532 [0 0 0 0] ------- [1:0 0:0 32 0] [19] 0 0
r 1.081136167 _0_ AGT  --- 13 cbr 532 [13a 0 1 800] ------- [1:0 0:0 32 0] [12] 1 0
s 1.081920000 _1_ AGT  --- 21 cbr 512 [0 0 0 0] ------- [1:0 0:0 32 0] [20] 0 0
r 1.081920000 _1_ RTR  --- 21 cbr 512 [0 0 0 0] ------- [1:0 0:0 32 0] [20] 0 0
s 1.081920000 _1_ RTR  --- 21 cbr 532 [0 0 0 0] ------- [1:0 0:0 32 0] [20] 0 0
s 1.086016000 _1_ AGT  --- 22 cbr 512 [0 0 0 0] ------- [1:0 0:0 32 0] [21] 0 0
r 1.086016000 _1_ RTR  --- 22 cbr 512 [0 0 0 0] ------- [1:0 0:0 32 0] [21] 0 0
s 1.086016000 _1_ RTR  --- 22 cbr 532 [0 0 0 0] ------- [1:0 0:0 32 0] [21] 0 0
r 1.086916833 _0_ AGT  --- 14 cbr 532 [13a 0 1 800] ------- [1:0 0:0 32 0] [13] 1 0
s 1.090112000 _1_ AGT  --- 23 cbr 512 [0 0 0 0] ------- [1:0 0:0 32 0] [22] 0 0
r 1.090112000 _1_ RTR  --- 23 cbr 512 [0 0 0 0] ------- [1:0 0:0 32 0] [22] 0 0
s 1.090112000 _1_ RTR  --- 23 cbr 532 [0 0 0 0] ------- [1:0 0:0 32 0] [22] 0 0
r 1.092917500 _0_ AGT  --- 15 cbr 532 [13a 0 1 800] ------- [1:0 0:0 32 0] [14] 1 0
s 1.094208000 _1_ AGT  --- 24 cbr 512 [0 0 0 0] ------- [1:0 0:0 32 0] [23] 0 0
r 1.094208000 _1_ RTR  --- 24 cbr 512 [0 0 0 0] ------- [1:0 0:0 32 0] [23] 0 0
s 1.094208000 _1_ RTR  --- 24 cbr 532 [0 0 0 0] ------- [1:0 0:0 32 0] [23] 0 0
s 1.098304000 _1_ AGT  --- 25 cbr 512 [0 0 0 0] ------- [1:0 0:0 32 0] [24] 0 0
r 1.098304000 _1_ RTR  --- 25 cbr 512 [0 0 0 0] ------- [1:0 0:0 32 0] [24] 0 0
s 1.098304000 _1_ RTR  --- 25 cbr 532 [0 0 0 0] ------- [1:0 0:0 32 0] [24] 0 0
r 1.099118167 _0_ AGT  --- 16 cbr 532 [13a 0 1 800] ------- [1:0 0:0 32 0] [15] 1 0
s 1.102400000 _1_ AGT  --- 26 cbr 512 [0 0 0 0] ------- [1:0 0:0 32 0] [25] 0 0
r 1.102400000 _1_ RTR  --- 26 cbr 512 [0 0 0 0] ------- [1:0 0:0 32 0] [25] 0 0
s 1.102400000 _1_ RTR  --- 26 cbr 532 [0 0 0 0] ------- [1:0 0:0 32 0] [25] 0 0
r 1.105058833 _0_ AGT  --- 17 cbr 532 [13a 0 1 800] ------- [1:0 0:0 32 0] [16] 1 0
s 1.106496000 _1_ AGT  --- 27 cbr 512 [0 0 0 0] ------- [1:0 0:0 32 0] [26] 0 0
r 1.106496000 _1_ RTR  --- 27 cbr 512 [0 0 0 0] ------- [1:0 0:0 32 0] [26] 0 0
s 1.106496000 _1_ RTR  --- 27 cbr 532 [0 0 0 0] ------- [1:0 0:0 32 0] [26] 0 0
s 1.110592000 _1_ AGT  --- 28 cbr 512 [0 0 0 0] ------- [1:0 0:0 32 0] [27] 0 0
r 1.110592000 _1_ RTR  --- 28 cbr 512 [0 0 0 0] ------- [1:0 0:0 32 0] [27] 0 0
s 1.110592000 _1_ RTR  --- 28 cbr 532 [0 0 0 0] ------- [1:0 0:0 32 0] [27] 0 0
r 1.111399500 _0_ AGT  --- 18 cbr 532 [13a 0 1 800] ------- [1:0 0:0 32 0] [17] 1 0
s 1.113933027 _1_ RTR  --- 29 message 32 [0 0 0 0] ------- [1:255 -1:255 32 0] 
s 1.114688000 _1_ AGT  --- 30 cbr 512 [0 0 0 0] ------- [1:0 0:0 32 0] [28] 0 0
r 1.114688000 _1_ RTR  --- 30 cbr 512 [0 0 0 0] ------- [1:0 0:0 32 0] [28] 0 0
s 1.114688000 _1_ RTR  --- 30 cbr 532 [0 0 0 0] ------- [1:0 0:0 32 0] [28] 0 0
r 1.117560167 _0_ AGT  --- 19 cbr 532 [13a 0 1 800] ------- [1:0 0:0 32 0] [18] 1 0
r 1.118684500 _0_ RTR  --- 29 message 32 [0 ffffffff 1 800] ------- [1:255 -1:255 32 0] 
s 1.118784000 _1_ AGT  --- 31 cbr 512 [0 0 0 0] ------- [1:0 0:0 32 0] [29] 0 0
r 1.118784000 _1_ RTR  --- 31 cbr 512 [0 0 0 0] ------- [1:0 0:0 32 0] [29] 0 0
s 1.118784000 _1_ RTR  --- 31 cbr 532 [0 0 0 0] ------- [1:0 0:0 32 0] [29] 0 0
s 1.122880000 _1_ AGT  --- 32 cbr 512 [0 0 0 0] ------- [1:0 0:0 32 0] [30] 0 0
r 1.122880000 _1_ RTR  --- 32 cbr 512 [0 0 0 0] ------- [1:0 0:0 32 0] [30] 0 0
s 1.122880000 _1_ RTR  --- 32 cbr 532 [0 0 0 0] ------- [1:0 0:0 32 0] [30] 0 0
r 1.124430833 _0_ AGT  --- 20 cbr 532 [13a 0 1 800] ------- [1:0 0:0 32 0] [19] 1 0
s 1.126976000 _1_ AGT  --- 33 cbr 512 [0 0 0 0] ------- [1:0 0:0 32 0] [31] 0 0
r 1.126976000 _1_ RTR  --- 33 cbr 512 [0 0 0 0] ------- [1:0 0:0 32 0] [31] 0 0
s 1.126976000 _1_ RTR  --- 33 cbr 532 [0 0 0 0] ------- [1:0 0:0 32 0] [31] 0 0
r 1.130551500 _0_ AGT  --- 21 cbr 532 [13a 0 1 800] ------- [1:0 0:0 32 0] [20] 1 0
s 1.131072000 _1_ AGT  --- 34 cbr 512 [0 0 0 0] ------- [1:0 0:0 32 0] [32] 0 0
r 1.131072000 _1_ RTR  --- 34 cbr 512 [0 0 0 0] ------- [1:0 0:0 32 0] [32] 0 0
s 1.131072000 _1_ RTR  --- 34 cbr 532 [0 0 0 0] ------- [1:0 0:0 32 0] [32] 0 0
s 1.135168000 _1_ AGT  --- 35 cbr 512 [0 0 0 0] ------- [1:0 0:0 32 0] [33] 0 0
r 1.135168000 _1_ RTR  --- 35 cbr 512 [0 0 0 0] ------- [1:0 0:0 32 0] [33] 0 0
s 1.135168000 _1_ RTR  --- 35 cbr 532 [0 0 0 0] ------- [1:0 0:0 32 0] [33] 0 0
r 1.136452167 _0_ AGT  --- 22 cbr 532 [13a 0 1 800] ------- [1:0 0:0 32 0] [21] 1 0
s 1.139264000 _1_ AGT  --- 36 cbr 512 [0 0 0 0] ------- [1:0 0:0 32 0] [34] 0 0
r 1.139264000 _1_ RTR  --- 36 cbr 512 [0 0 0 0] ------- [1:0 0:0 32 0] [34] 0 0
s 1.139264000 _1_ RTR  --- 36 cbr 532 [0 0 0 0] ------- [1:0 0:0 32 0] [34] 0 0
r 1.142292833 _0_ AGT  --- 23 cbr 532 [13a 0 1 800] ------- [1:0 0:0 32 0] [22] 1 0
s 1.143360000 _1_ AGT  --- 37 cbr 512 [0 0 0 0] ------- [1:0 0:0 32 0] [35] 0 0
r 1.143360000 _1_ RTR  --- 37 cbr 512 [0 0 0 0] ------- [1:0 0:0 32 0] [35] 0 0
s 1.143360000 _1_ RTR  --- 37 cbr 532 [0 0 0 0] ------- [1:0 0:0 32 0] [35] 0 0
s 1.147456000 _1_ AGT  --- 38 cbr 512 [0 0 0 0] ------- [1:0 0:0 32 0] [36] 0 0
r 1.147456000 _1_ RTR  --- 38 cbr 512 [0 0 0 0] ------- [1:0 0:0 32 0] [36] 0 0
s 1.147456000 _1_ RTR  --- 38 cbr 532 [0 0 0 0] ------- [1:0 0:0 32 0] [36] 0 0
r 1.148333500 _0_ AGT  --- 24 cbr 532 [13a 0 1 800] ------- [1:0 0:0 32 0] [23] 1 0
s 1.151552000 _1_ AGT  --- 39 cbr 512 [0 0 0 0] ------- [1:0 0:0 32 0] [37] 0 0
r 1.151552000 _1_ RTR  --- 39 cbr 512 [0 0 0 0] ------- [1:0 0:0 32 0] [37] 0 0
s 1.151552000 _1_ RTR  --- 39 cbr 532 [0 0 0 0] ------- [1:0 0:0 32 0] [37] 0 0
r 1.154294167 _0_ AGT  --- 25 cbr 532 [13a 0 1 800] ------- [1:0 0:0 32 0] [24] 1 0
s 1.155648000 _1_ AGT  --- 40 cbr 512 [0 0 0 0] ------- [1:0 0:0 32 0] [38] 0 0
r 1.155648000 _1_ RTR  --- 40 cbr 512 [0 0 0 0] ------- [1:0 0:0 32 0] [38] 0 0
s 1.155648000 _1_ RTR  --- 40 cbr 532 [0 0 0 0] ------- [1:0 0:0 32 0] [38] 0 0
s 1.159744000 _1_ AGT  --- 41 cbr 512 [0 0 0 0] ------- [1:0 0:0 32 0] [39] 0 0
r 1.159744000 _1_ RTR  --- 41 cbr 512 [0 0 0 0] ------- [1:0 0:0 32 0] [39] 0 0
s 1.159744000 _1_ RTR  --- 41 cbr 532 [0 0 0 0] ------- [1:0 0:0 32 0] [39] 0 0
r 1.160154833 _0_ AGT  --- 26 cbr 532 [13a 0 1 800] ------- [1:0 0:0 32 0] [25] 1 0
s 1.163840000 _1_ AGT  --- 42 cbr 512 [0 0 0 0] ------- [1:0 0:0 32 0] [40] 0 0
r 1.163840000 _1_ RTR  --- 42 cbr 512 [0 0 0 0] ------- [1:0 0:0 32 0] [40] 0 0
s 1.163840000 _1_ RTR  --- 42 cbr 532 [0 0 0 0] ------- [1:0 0:0 32 0] [40] 0 0
r 1.166435500 _0_ AGT  --- 27 cbr 532 [13a 0 1 800] ------- [1:0 0:0 32 0] [26] 1 0
s 1.167936000 _1_ AGT  --- 43 cbr 512 [0 0 0 0] ------- [1:0 0:0 32 0] [41] 0 0
r 1.167936000 _1_ RTR  --- 43 cbr 512 [0 0 0 0] ------- [1:0 0:0 32 0] [41] 0 0
s 1.167936000 _1_ RTR  --- 43 cbr 532 [0 0 0 0] ------- [1:0 0:0 32 0] [41] 0 0
s 1.172032000 _1_ AGT  --- 44 cbr 512 [0 0 0 0] ------- [1:0 0:0 32 0] [42] 0 0
r 1.172032000 _1_ RTR  --- 44 cbr 512 [0 0 0 0] ------- [1:0 0:0 32 0] [42] 0 0
s 1.172032000 _1_ RTR  --- 44 cbr 532 [0 0 0 0] ------- [1:0 0:0 32 0] [42] 0 0
r 1.172416167 _0_ AGT  --- 28 cbr 532 [13a 0 1 800] ------- [1:0 0:0 32 0] [27] 1 0
s 1.176128000 _1_ AGT  --- 45 cbr 512 [0 0 0 0] ------- [1:0 0:0 32 0] [43] 0 0
r 1.176128000 _1_ RTR  --- 45 cbr 512 [0 0 0 0] ------- [1:0 0:0 32 0] [43] 0 0
s 1.176128000 _1_ RTR  --- 45 cbr 532 [0 0 0 0] ------- [1:0 0:0 32 0] [43] 0 0
r 1.178376833 _0_ AGT  --- 30 cbr 532 [13a 0 1 800] ------- [1:0 0:0 32 0] [28] 1 0
s 1.180224000 _1_ AGT  --- 46 cbr 512 [0 0 0 0] ------- [1:0 0:0 32 0] [44] 0 0
r 1.180224000 _1_ RTR  --- 46 cbr 512 [0 0 0 0] ------- [1:0 0:0 32 0] [44] 0 0
s 1.180224000 _1_ RTR  --- 46 cbr 532 [0 0 0 0] ------- [1:0 0:0 32 0] [44] 0 0
s 1.184320000 _1_ AGT  --- 47 cbr 512 [0 0 0 0] ------- [1:0 0:0 32 0] [45] 0 0
r 1.184320000 _1_ RTR  --- 47 cbr 512 [0 0 0 0] ------- [1:0 0:0 32 0] [45] 0 0
s 1.184320000 _1_ RTR  --- 47 cbr 532 [0 0 0 0] ------- [1:0 0:0 32 0] [45] 0 0
r 1.184717500 _0_ AGT  --- 31 cbr 532 [13a 0 1 800] ------- [1:0 0:0 32 0] [29] 1 0
s 1.188416000 _1_ AGT  --- 48 cbr 512 [0 0 0 0] ------- [1:0 0:0 32 0] [46] 0 0
r 1.188416000 _1_ RTR  --- 48 cbr 512 [0 0 0 0] ------- [1:0 0:0 32 0] [46] 0 0
s 1.188416000 _1_ RTR  --- 48 cbr 532 [0 0 0 0] ------- [1:0 0:0 32 0] [46] 0 0
r 1.190538167 _0_ AGT  --- 32 cbr 532 [13a 0 1 800] ------- [1:0 0:0 32 0] [30] 1 0
s 1.192512000 _1_ AGT  --- 49 cbr 512 [0 0 0 0] ------- [1:0 0:0 32 0] [47] 0 0
r 1.192512000 _1_ RTR  --- 49 cbr 512 [0 0 0 0] ------- [1:0 0:0 32 0] [47] 0 0
s 1.192512000 _1_ RTR  --- 49 cbr 532 [0 0 0 0] ------- [1:0 0:0 32 0] [47] 0 0
r 1.196418833 _0_ AGT  --- 33 cbr 532 [13a 0 1 800] ------- [1:0 0:0 32 0] [31] 1 0
s 1.196608000 _1_ AGT  --- 50 cbr 512 [0 0 0 0] ------- [1:0 0:0 32 0] [48] 0 0
r 1.196608000 _1_ RTR  --- 50 cbr 512 [0 0 0 0] ------- [1:0 0:0 32 0] [48] 0 0
s 1.196608000 _1_ RTR  --- 50 cbr 532 [0 0 0 0] ------- [1:0 0:0 32 0] [48] 0 0
s 1.200704000 _1_ AGT  --- 51 cbr 512 [0 0 0 0] ------- [1:0 0:0 32 0] [49] 0 0
r 1.200704000 _1_ RTR  --- 51 cbr 512 [0 0 0 0] ------- [1:0 0:0 32 0] [49] 0 0
s 1.200704000 _1_ RTR  --- 51 cbr 532 [0 0 0 0] ------- [1:0 0:0 32 0] [49] 0 0
r 1.202519500 _0_ AGT  --- 34 cbr 532 [13a 0 1 800] ------- [1:0 0:0 32 0] [32] 1 0
s 1.204800000 _1_ AGT  --- 52 cbr 512 [0 0 0 0] ------- [1:0 0:0 32 0] [50] 0 0
r 1.204800000 _1_ RTR  --- 52 cbr 512 [0 0 0 0] ------- [1:0 0:0 32 0] [50] 0 0
s 1.204800000 _1_ RTR  --- 52 cbr 532 [0 0 0 0] ------- [1:0 0:0 32 0] [50] 0 0
r 1.208780167 _0_ AGT  --- 35 cbr 532 [13a 0 1 800] ------- [1:0 0:0 32 0] [33] 1 0
s 1.208896000 _1_ AGT  --- 53 cbr 512 [0 0 0 0] ------- [1:0 0:0 32 0] [51] 0 0
r 1.208896000 _1_ RTR  --- 53 cbr 512 [0 0 0 0] ------- [1:0 0:0 32 0] [51] 0 0
s 1.208896000 _1_ RTR  --- 53 cbr 532 [0 0 0 0] ------- [1:0 0:0 32 0] [51] 0 0
s 1.212992000 _1_ AGT  --- 54 cbr 512 [0 0 0 0] ------- [1:0 0:0 32 0] [52] 0 0
r 1.212992000 _1_ RTR  --- 54 cbr 512 [0 0 0 0] ------- [1:0 0:0 32 0] [52] 0 0
s 1.212992000 _1_ RTR  --- 54 cbr 532 [0 0 0 0] ------- [1:0 0:0 32 0] [52] 0 0
r 1.214820833 _0_ AGT  --- 36 cbr 532 [13a 0 1 800] ------- [1:0 0:0 32 0] [34] 1 0
s 1.217088000 _1_ AGT  --- 55 cbr 512 [0 0 0 0] ------- [1:0 0:0 32 0] [53] 0 0
r 1.217088000 _1_ RTR  --- 55 cbr 512 [0 0 0 0] ------- [1:0 0:0 32 0] [53] 0 0
s 1.217088000 _1_ RTR  --- 55 cbr 532 [0 0 0 0] ------- [1:0 0:0 32 0] [53] 0 0
r 1.220761500 _0_ AGT  --- 37 cbr 532 [13a 0 1 800] ------- [1:0 0:0 32 0] [35] 1 0
s 1.221184000 _1_ AGT  --- 56 cbr 512 [0 0 0 0] ------- [1:0 0:0 32 0] [54] 0 0
r 1.221184000 _1_ RTR  --- 56 cbr 512 [0 0 0 0] ------- [1:0 0:0 32 0] [54] 0 0
s 1.221184000 _1_ RTR  --- 56 cbr 532 [0 0 0 0] ------- [1:0 0:0 32 0] [54] 0 0
s 1.225280000 _1_ AGT  --- 57 cbr 512 [0 0 0 0] ------- [1:0 0:0 32 0] [55] 0 0
r 1.225280000 _1_ RTR  --- 57 cbr 512 [0 0 0 0] ------- [1:0 0:0 32 0] [55] 0 0
s 1.225280000 _1_ RTR  --- 57 cbr 532 [0 0 0 0] ------- [1:0 0:0 32 0] [55] 0 0
r 1.226802167 _0_ AGT  --- 38 cbr 532 [13a 0 1 800] ------- [1:0 0:0 32 0] [36] 1 0
s 1.229376000 _1_ AGT  --- 58 cbr 512 [0 0 0 0] ------- [1:0 0:0 32 0] [56] 0 0
r 1.229376000 _1_ RTR  --- 58 cbr 512 [0 0 0 0] ------- [1:0 0:0 32 0] [56] 0 0
s 1.229376000 _1_ RTR  --- 58 cbr 532 [0 0 0 0] ------- [1:0 0:0 32 0] [56] 0 0
r 1.233042833 _0_ AGT  --- 39 cbr 532 [13a 0 1 800] ------- [1:0 0:0 32 0] [37] 1 0
s 1.233472000 _1_ AGT  --- 59 cbr 512 [0 0 0 0] ------- [1:0 0:0 32 0] [57] 0 0
r 1.233472000 _1_ RTR  --- 59 cbr 512 [0 0 0 0] ------- [1:0 0:0 32 0] [57] 0 0
s 1.233472000 _1_ RTR  --- 59 cbr 532 [0 0 0 0] ------- [1:0 0:0 32 0] [57] 0 0
s 1.237568000 _1_ AGT  --- 60 cbr 512 [0 0 0 0] ------- [1:0 0:0 32 0] [58] 0 0
r 1.237568000 _1_ RTR  --- 60 cbr 512 [0 0 0 0] ------- [1:0 0:0 32 0] [58] 0 0
s 1.237568000 _1_ RTR  --- 60 cbr 532 [0 0 0 0] ------- [1:0 0:0 32 0] [58] 0 0
r 1.238803500 _0_ AGT  --- 40 cbr 532 [13a 0 1 800] ------- [1:0 0:0 32 0] [38] 1 0
s 1.241664000 _1_ AGT  --- 61 cbr 512 [0 0 0 0] ------- [1:0 0:0 32 0] [59] 0 0
r 1.241664000 _1_ RTR  --- 61 cbr 512 [0 0 0 0] ------- [1:0 0:0 32 0] [59] 0 0
s 1.241664000 _1_ RTR  --- 61 cbr 532 [0 0 0 0] ------- [1:0 0:0 32 0] [59] 0 0
r 1.244784167 _0_ AGT  --- 41 cbr 532 [13a 0 1 800] ------- [1:0 0:0 32 0] [39] 1 0
s 1.245760000 _1_ AGT  --- 62 cbr 512 [0 0 0 0] ------- [1:0 0:0 32 0] [60] 0 0
r 1.245760000 _1_ RTR  --- 62 cbr 512 [0 0 0 0] ------- [1:0 0:0 32 0] [60] 0 0
s 1.245760000 _1_ RTR  --- 62 cbr 532 [0 0 0 0] ------- [1:0 0:0 32 0] [60] 0 0
s 1.249856000 _1_ AGT  --- 63 cbr 512 [0 0 0 0] ------- [1:0 0:0 32 0] [61] 0 0
r 1.249856000 _1_ RTR  --- 63 cbr 512 [0 0 0 0] ------- [1:0 0:0 32 0] [61] 0 0
s 1.249856000 _1_ RTR  --- 63 cbr 532 [0 0 0 0] ------- [1:0 0:0 32 0] [61] 0 0
r 1.250864833 _0_ AGT  --- 42 cbr 532 [13a 0 1 800] ------- [1:0 0:0 32 0] [40] 1 0
s 1.253952000 _1_ AGT  --- 64 cbr 512 [0 0 0 0] ------- [1:0 0:0 32 0] [62] 0 0
r 1.253952000 _1_ RTR  --- 64 cbr 512 [0 0 0 0] ------- [1:0 0:0 32 0] [62] 0 0
s 1.253952000 _1_ RTR  --- 64 cbr 532 [0 0 0 0] ------- [1:0 0:0 32 0] [62] 0 0
r 1.256785500 _0_ AGT  --- 43 cbr 532 [13a 0 1 800] ------- [1:0 0:0 32 0] [41] 1 0
s 1.258048000 _1_ AGT  --- 65 cbr 512 [0 0 0 0] ------- [1:0 0:0 32 0] [63] 0 0
r 1.258048000 _1_ RTR  --- 65 cbr 512 [0 0 0 0] ------- [1:0 0:0 32 0] [63] 0 0
s 1.258048000 _1_ RTR  --- 65 cbr 532 [0 0 0 0] ------- [1:0 0:0 32 0] [63] 0 0
s 1.262144000 _1_ AGT  --- 66 cbr 512 [0 0 0 0] ------- [1:0 0:0 32 0] [64] 0 0
r 1.262144000 _1_ RTR  --- 66 cbr 512 [0 0 0 0] ------- [1:0 0:0 32 0] [64] 0 0
s 1.262144000 _1_ RTR  --- 66 cbr 532 [0 0 0 0] ------- [1:0 0:0 32 0] [64] 0 0
r 1.262766167 _0_ AGT  --- 44 cbr 532 [13a 0 1 800] ------- [1:0 0:0 32 0] [42] 1 0
s 1.266240000 _1_ AGT  --- 67 cbr 512 [0 0 0 0] ------- [1:0 0:0 32 0] [65] 0 0
r 1.266240000 _1_ RTR  --- 67 cbr 512 [0 0 0 0] ------- [1:0 0:0 32 0] [65] 0 0
s 1.266240000 _1_ RTR  --- 67 cbr 532 [0 0 0 0] ------- [1:0 0:0 32 0] [65] 0 0
r 1.268606833 _0_ AGT  --- 45 cbr 532 [13a 0 1 800] ------- [1:0 0:0 32 0] [43] 1 0
s 1.270336000 _1_ AGT  --- 68 cbr 512 [0 0 0 0] ------- [1:0 0:0 32 0] [66] 0 0
r 1.270336000 _1_ RTR  --- 68 cbr 512 [0 0 0 0] ------- [1:0 0:0 32 0] [66] 0 0
s 1.270336000 _1_ RTR  --- 68 cbr 532 [0 0 0 0] ------- [1:0 0:0 32 0] [66] 0 0
s 1.274432000 _1_ AGT  --- 69 cbr 512 [0 0 0 0] ------- [1:0 0:0 32 0] [67] 0 0
r 1.274432000 _1_ RTR  --- 69 cbr 512 [0 0 0 0] ------- [1:0 0:0 32 0] [67] 0 0
s 1.274432000 _1_ RTR  --- 69 cbr 532 [0 0 0 0] ------- [1:0 0:0 32 0] [67] 0 0
r 1.274667500 _0_ AGT  --- 46 cbr 532 [13a 0 1 800] ------- [1:0 0:0 32 0] [44] 1 0
s 1.278528000 _1_ AGT  --- 70 cbr 512 [0 0 0 0] ------- [1:0 0:0 32 0] [68] 0 0
r 1.278528000 _1_ RTR  --- 70 cbr 512 [0 0 0 0] ------- [1:0 0:0 32 0] [68] 0 0
s 1.278528000 _1_ RTR  --- 70 cbr 532 [0 0 0 0] ------- [1:0 0:0 32 0] [68] 0 0
r 1.280428167 _0_ AGT  --- 47 cbr 532 [13a 0 1 800] ------- [1:0 0:0 32 0] [45] 1 0
s 1.282624000 _1_ AGT  --- 71 cbr 512 [0 0 0 0] ------- [1:0 0:0 32 0] [69] 0 0
r 1.282624000 _1_ RTR  --- 71 cbr 512 [0 0 0 0] ------- [1:0 0:0 32 0] [69] 0 0
s 1.282624000 _1_ RTR  --- 71 cbr 532 [0 0 0 0] ------- [1:0 0:0 32 0] [69] 0 0
r 1.286428833 _0_ AGT  --- 48 cbr 532 [13a 0 1 800] ------- [1:0 0:0 32 0] [46] 1 0
s 1.286720000 _1_ AGT  --- 72 cbr 512 [0 0 0 0] ------- [1:0 0:0 32 0] [70] 0 0
r 1.286720000 _1_ RTR  --- 72 cbr 512 [0 0 0 0] ------- [1:0 0:0 32 0] [70] 0 0
s 1.286720000 _1_ RTR  --- 72 cbr 532 [0 0 0 0] ------- [1:0 0:0 32 0] [70] 0 0
s 1.290816000 _1_ AGT  --- 73 cbr 512 [0 0 0 0] ------- [1:0 0:0 32 0] [71] 0 0
r 1.290816000 _1_ RTR  --- 73 cbr 512 [0 0 0 0] ------- [1:0 0:0 32 0] [71] 0 0
s 1.290816000 _1_ RTR  --- 73 cbr 532 [0 0 0 0] ------- [1:0 0:0 32 0] [71] 0 0
r 1.292489500 _0_ AGT  --- 49 cbr 532 [13a 0 1 800] ------- [1:0 0:0 32 0] [47] 1 0
s 1.294912000 _1_ AGT  --- 74 cbr 512 [0 0 0 0] ------- [1:0 0:0 32 0] [72] 0 0
r 1.294912000 _1_ RTR  --- 74 cbr 512 [0 0 0 0] ------- [1:0 0:0 32 0] [72] 0 0
s 1.294912000 _1_ RTR  --- 74 cbr 532 [0 0 0 0] ------- [1:0 0:0 32 0] [72] 0 0
r 1.298530167 _0_ AGT  --- 50 cbr 532 [13a 0 1 800] ------- [1:0 0:0 32 0] [48] 1 0
s 1.299008000 _1_ AGT  --- 75 cbr 512 [0 0 0 0] ------- [1:0 0:0 32 0] [73] 0 0
r 1.299008000 _1_ RTR  --- 75 cbr 512 [0 0 0 0] ------- [1:0 0:0 32 0] [73] 0 0
s 1.299008000 _1_ RTR  --- 75 cbr 532 [0 0 0 0] ------- [1:0 0:0 32 0] [73] 0 0
s 1.303104000 _1_ AGT  --- 76 cbr 512 [0 0 0 0] ------- [1:0 0:0 32 0] [74] 0 0
r 1.303104000 _1_ RTR  --- 76 cbr 512 [0 0 0 0] ------- [1:0 0:0 32 0] [74] 0 0
s 1.303104000 _1_ RTR  --- 76 cbr 532 [0 0 0 0] ------- [1:0 0:0 32 0] [74] 0 0
r 1.304310833 _0_ AGT  --- 51 cbr 532 [13a 0 1 800] ------- [1:0 0:0 32 0] [49] 1 0
s 1.307200000 _1_ AGT  --- 77 cbr 512 [0 0 0 0] ------- [1:0 0:0 32 0] [75] 0 0
r 1.307200000 _1_ RTR  --- 77 cbr 512 [0 0 0 0] ------- [1:0 0:0 32 0] [75] 0 0
s 1.307200000 _1_ RTR  --- 77 cbr 532 [0 0 0 0] ------- [1:0 0:0 32 0] [75] 0 0
r 1.310551500 _0_ AGT  --- 52 cbr 532 [13a 0 1 800] ------- [1:0 0:0 32 0] [50] 1 0
s 1.311296000 _1_ AGT  --- 78 cbr 512 [0 0 0 0] ------- [1:0 0:0 32 0] [76] 0 0
r 1.311296000 _1_ RTR  --- 78 cbr 512 [0 0 0 0] ------- [1:0 0:0 32 0] [76] 0 0
s 1.311296000 _1_ RTR  --- 78 cbr 532 [0 0 0 0] ------- [1:0 0:0 32 0] [76] 0 0
s 1.315392000 _1_ AGT  --- 79 cbr 512 [0 0 0 0] ------- [1:0 0:0 32 0] [77] 0 0
r 1.315392000 _1_ RTR  --- 79 cbr 512 [0 0 0 0] ------- [1:0 0:0 32 0] [77] 0 0
s 1.315392000 _1_ RTR  --- 79 cbr 532 [0 0 0 0] ------- [1:0 0:0 32 0] [77] 0 0
r 1.316552167 _0_ AGT  --- 53 cbr 532 [13a 0 1 800] ------- [1:0 0:0 32 0] [51] 1 0
s 1.319488000 _1_ AGT  --- 80 cbr 512 [0 0 0 0] ------- [1:0 0:0 32 0] [78] 0 0
r 1.319488000 _1_ RTR  --- 80 cbr 512 [0 0 0 0] ------- [1:0 0:0 32 0] [78] 0 0
s 1.319488000 _1_ RTR  --- 80 cbr 532 [0 0 0 0] ------- [1:0 0:0 32 0] [78] 0 0
r 1.322432833 _0_ AGT  --- 54 cbr 532 [13a 0 1 800] ------- [1:0 0:0 32 0] [52] 1 0
s 1.323584000 _1_ AGT  --- 81 cbr 512 [0 0 0 0] ------- [1:0 0:0 32 0] [79] 0 0
r 1.323584000 _1_ RTR  --- 81 cbr 512 [0 0 0 0] ------- [1:0 0:0 32 0] [79] 0 0
s 1.323584000 _1_ RTR  --- 81 cbr 532 [0 0 0 0] ------- [1:0 0:0 32 0] [79] 0 0
s 1.327680000 _1_ AGT  --- 82 cbr 512 [0 0 0 0] ------- [1:0 0:0 32 0] [80] 0 0
r 1.327680000 _1_ RTR  --- 82 cbr 512 [0 0 0 0] ------- [1:0 0:0 32 0] [80] 0 0
s 1.327680000 _1_ RTR  --- 82 cbr 532 [0 0 0 0] ------- [1:0 0:0 32 0] [80] 0 0
r 1.328493500 _0_ AGT  --- 55 cbr 532 [13a 0 1 800] ------- [1:0 0:0 32 0] [53] 1 0
s 1.331776000 _1_ AGT  --- 83 cbr 512 [0 0 0 0] ------- [1:0 0:0 32 0] [81] 0 0
r 1.331776000 _1_ RTR  --- 83 cbr 512 [0 0 0 0] ------- [1:0 0:0 32 0] [81] 0 0
s 1.331776000 _1_ RTR  --- 83 cbr 532 [0 0 0 0] ------- [1:0 0:0 32 0] [81] 0 0
r 1.334294167 _0_ AGT  --- 56 cbr 532 [13a 0 1 800] ------- [1:0 0:0 32 0] [54] 1 0
s 1.335872000 _1_ AGT  --- 84 cbr 512 [0 0 0 0] ------- [1:0 0:0 32 0] [82] 0 0
r 1.335872000 _1_ RTR  --- 84 cbr 512 [0 0 0 0] ------- [1:0 0:0 32 0] [82] 0 0
s 1.335872000 _1_ RTR  --- 84 cbr 532 [0 0 0 0] ------- [1:0 0:0 32 0] [82] 0 0
s 1.339968000 _1_ AGT  --- 85 cbr 512 [0 0 0 0] ------- [1:0 0:0 32 0] [83] 0 0
r 1.339968000 _1_ RTR  --- 85 cbr 512 [0 0 0 0] ------- [1:0 0:0 32 0] [83] 0 0
s 1.339968000 _1_ RTR  --- 85 cbr 532 [0 0 0 0] ------- [1:0 0:0 32 0] [83] 0 0
r 1.340514833 _0_ AGT  --- 57 cbr 532 [13a 0 1 800] ------- [1:0 0:0 32 0] [55] 1 0
s 1.344064000 _1_ AGT  --- 86 cbr 512 [0 0 0 0] ------- [1:0 0:0 32 0] [84] 0 0
r 1.344064000 _1_ RTR  --- 86 cbr 512 [0 0 0 0] ------- [1:0 0:0 32 0] [84] 0 0
s 1.344064000 _1_ RTR  --- 86 cbr 532 [0 0 0 0] ------- [1:0 0:0 32 0] [84] 0 0
r 1.346395500 _0_ AGT  --- 58 cbr 532 [13a 0 1 800] ------- [1:0 0:0 32 0] [56] 1 0
s 1.348160000 _1_ AGT  --- 87 cbr 512 [0 0 0 0] ------- [1:0 0:0 32 0] [85] 0 0
r 1.348160000 _1_ RTR  --- 87 cbr 512 [0 0 0 0] ------- [1:0 0:0 32 0] [85] 0 0
s 1.348160000 _1_ RTR  --- 87 cbr 532 [0 0 0 0] ------- [1:0 0:0 32 0] [85] 0 0
s 1.352256000 _1_ AGT  --- 88 cbr 512 [0 0 0 0] ------- [1:0 0:0 32 0] [86] 0 0
r 1.352256000 _1_ RTR  --- 88 cbr 512 [0 0 0 0] ------- [1:0 0:0 32 0] [86] 0 0
s 1.352256000 _1_ RTR  --- 88 cbr 532 [0 0 0 0] ------- [1:0 0:0 32 0] [86] 0 0
r 1.352356167 _0_ AGT  --- 59 cbr 532 [13a 0 1 800] ------- [1:0 0:0 32 0] [57] 1 0
s 1.356352000 _1_ AGT  --- 89 cbr 512 [0 0 0 0] ------- [1:0 0:0 32 0] [87] 0 0
r 1.356352000 _1_ RTR  --- 89 cbr 512 [0 0 0 0] ------- [1:0 0:0 32 0] [87] 0 0
s 1.356352000 _1_ RTR  --- 89 cbr 532 [0 0 0 0] ------- [1:0 0:0 32 0] [87] 0 0
r 1.358216833 _0_ AGT  --- 60 cbr 532 [13a 0 1 800] ------- [1:0 0:0 32 0] [58] 1 0
s 1.360448000 _1_ AGT  --- 90 cbr 512 [0 0 0 0] ------- [1:0 0:0 32 0] [88] 0 0
r 1.360448000 _1_ RTR  --- 90 cbr 512 [0 0 0 0] ------- [1:0 0:0 32 0] [88] 0 0
s 1.360448000 _1_ RTR  --- 90 cbr 532 [0 0 0 0] ------- [1:0 0:0 32 0] [88] 0 0
r 1.364057500 _0_ AGT  --- 61 cbr 532 [13a 0 1 800] ------- [1:0 0:0 32 0] [59] 1 0
s 1.364544000 _1_ AGT  --- 91 cbr 512 [0 0 0 0] ------- [1:0 0:0 32 0] [89] 0 0
r 1.364544000 _1_ RTR  --- 91 cbr 512 [0 0 0 0] ------- [1:0 0:0 32 0] [89] 0 0
s 1.364544000 _1_ RTR  --- 91 cbr 532 [0 0 0 0] ------- [1:0 0:0 32 0] [89] 0 0
s 1.368640000 _1_ AGT  --- 92 cbr 512 [0 0 0 0] ------- [1:0 0:0 32 0] [90] 0 0
r 1.368640000 _1_ RTR  --- 92 cbr 512 [0 0 0 0] ------- [1:0 0:0 32 0] [90] 0 0
s 1.368640000 _1_ RTR  --- 92 cbr 532 [0 0 0 0] ------- [1:0 0:0 32 0] [90] 0 0
r 1.370078167 _0_ AGT  --- 62 cbr 532 [13a 0 1 800] ------- [1:0 0:0 32 0] [60] 1 0
s 1.372736000 _1_ AGT  --- 93 cbr 512 [0 0 0 0] ------- [1:0 0:0 32 0] [91] 0 0
r 1.372736000 _1_ RTR  --- 93 cbr 512 [0 0 0 0] ------- [1:0 0:0 32 0] [91] 0 0
s 1.372736000 _1_ RTR  --- 93 cbr 532 [0 0 0 0] ------- [1:0 0:0 32 0] [91] 0 0
r 1.376038833 _0_ AGT  --- 63 cbr 532 [13a 0 1 800] ------- [1:0 0:0 32 0] [61] 1 0
s 1.376832000 _1_ AGT  --- 94 cbr 512 [0 0 0 0] ------- [1:0 0:0 32 0] [92] 0 0
r 1.376832000 _1_ RTR  --- 94 cbr 512 [0 0 0 0] ------- [1:0 0:0 32 0] [92] 0 0
s 1.376832000 _1_ RTR  --- 94 cbr 532 [0 0 0 0] ------- [1:0 0:0 32 0] [92] 0 0
s 1.380928000 _1_ AGT  --- 95 cbr 512 [0 0 0 0] ------- [1:0 0:0 32 0] [93] 0 0
r 1.380928000 _1_ RTR  --- 95 cbr 512 [0 0 0 0] ------- [1:0 0:0 32 0] [93] 0 0
s 1.380928000 _1_ RTR  --- 95 cbr 532 [0 0 0 0] ------- [1:0 0:0 32 0] [93] 0 0
r 1.381859500 _0_ AGT  --- 64 cbr 532 [13a 0 1 800] ------- [1:0 0:0 32 0] [62] 1 0
s 1.385024000 _1_ AGT  --- 96 cbr 512 [0 0 0 0] ------- [1:0 0:0 32 0] [94] 0 0
r 1.385024000 _1_ RTR  --- 96 cbr 512 [0 0 0 0] ------- [1:0 0:0 32 0] [94] 0 0
s 1.385024000 _1_ RTR  --- 96 cbr 532 [0 0 0 0] ------- [1:0 0:0 32 0] [94] 0 0
r 1.387960167 _0_ AGT  --- 65 cbr 532 [13a 0 1 800] ------- [1:0 0:0 32 0] [63] 1 0
s 1.389120000 _1_ AGT  --- 97 cbr 512 [0 0 0 0] ------- [1:0 0:0 32 0] [95] 0 0
r 1.389120000 _1_ RTR  --- 97 cbr 512 [0 0 0 0] ------- [1:0 0:0 32 0] [95] 0 0
s 1.389120000 _1_ RTR  --- 97 cbr 532 [0 0 0 0] ------- [1:0 0:0 32 0] [95] 0 0
s 1.393216000 _1_ AGT  --- 98 cbr 512 [0 0 0 0] ------- [1:0 0:0 32 0] [96] 0 0
r 1.393216000 _1_ RTR  --- 98 cbr 512 [0 0 0 0] ------- [1:0 0:0 32 0] [96] 0 0
s 1.393216000 _1_ RTR  --- 98 cbr 532 [0 0 0 0] ------- [1:0 0:0 32 0] [96] 0 0
r 1.394320833 _0_ AGT  --- 66 cbr 532 [13a 0 1 800] ------- [1:0 0:0 32 0] [64] 1 0
s 1.397312000 _1_ AGT  --- 99 cbr 512 [0 0 0 0] ------- [1:0 0:0 32 0] [97] 0 0
r 1.397312000 _1_ RTR  --- 99 cbr 512 [0 0 0 0] ------- [1:0 0:0 32 0] [97] 0 0
s 1.397312000 _1_ RTR  --- 99 cbr 532 [0 0 0 0] ------- [1:0 0:0 32 0] [97] 0 0
r 1.400201500 _0_ AGT  --- 67 cbr 532 [13a 0 1 800] ------- [1:0 0:0 32 0] [65] 1 0
s 1.401408000 _1_ AGT  --- 100 cbr 512 [0 0 0 0] ------- [1:0 0:0 32 0] [98] 0 0
r 1.401408000 _1_ RTR  --- 100 cbr 512 [0 0 0 0] ------- [1:0 0:0 32 0] [98] 0 0
s 1.401408000 _1_ RTR  --- 100 cbr 532 [0 0 0 0] ------- [1:0 0:0 32 0] [98] 0 0
s 1.405504000 _1_ AGT  --- 101 cbr 512 [0 0 0 0] ------- [1:0 0:0 32 0] [99] 0 0
r 1.405504000 _1_ RTR  --- 101 cbr 512 [0 0 0 0] ------- [1:0 0:0 32 0] [99] 0 0
s 1.405504000 _1_ RTR  --- 101 cbr 532 [0 0 0 0] ------- [1:0 0:0 32 0] [99] 0 0
r 1.406022167 _0_ AGT  --- 68 cbr 532 [13a 0 1 800] ------- [1:0 0:0 32 0] [66] 1 0
s 1.409600000 _1_ AGT  --- 102 cbr 512 [0 0 0 0] ------- [1:0 0:0 32 0] [100] 0 0